[ defaults ]
; nbfunc comb-rule gen-pairs fudgeLJ fudgeQQ rep-pow
1 4 yes 1.0 1.0 9.0

[ atomtypes ]
; name mass charge ptype sigma epsilon
T1 12.011 0.0 A 0.35000000 0.20920000

[ moleculetype ]
; name nrexcl
MOL 1

[ atoms ]
; nr type resnr residue atom cgnr charge mass
1 T1 1 MOL A1 1 1.00000000 12.011
2 T1 1 MOL A2 2 -1.00000000 12.011

[ system ]
tp1_5_shift_cutoff

[ molecules ]
MOL 1
