tp1_5b_dense_nonlisted
    4
    1SYS     A1    1   0.074   1.035   1.257 -0.7222  0.1557  0.5360
    1SYS     A2    2   0.256   0.859   1.510 -0.6940  0.1280 -0.8761
    1SYS     A3    3   2.124   1.152   0.516  0.1584  0.6740 -0.3840
    1SYS     A4    4   2.316   0.954   0.716  1.2577 -0.9577  0.7242
   2.50000   2.50000   2.50000
