dense_salt_polymer
  270
    1POL     A1    1   0.147   1.923   1.165  0.7685  0.9478  0.8832
    1POL     A2    2   0.094   1.866   1.302 -0.1676  0.5951 -0.7423
    1POL     A3    3  -0.049   1.893   1.284  0.1675 -0.0649  0.0106
    1POL     A4    4  -0.119   1.831   1.159  0.6999 -0.2873 -0.1007
    1POL     A5    5  -0.047   1.711   1.129  0.0083 -0.5645  1.1376
    1POL     A6    6  -0.018   1.591   1.198 -0.1870 -0.1680  0.1313
    1POL     A7    7   0.113   1.570   1.259 -0.2875  0.4155  1.7625
    1POL     A8    8   0.231   1.590   1.166  0.5923  0.5577 -0.1105
    2POL     A1    9   1.383   1.973   1.726  0.5483  0.8571  1.1454
    2POL     A2   10   1.372   1.816   1.719  0.6936  0.5893  0.5672
    2POL     A3   11   1.279   1.742   1.645 -0.1075  0.1688  1.1954
    2POL     A4   12   1.139   1.723   1.701 -0.5405 -0.3857 -0.1532
    2POL     A5   13   1.110   1.852   1.763  0.2800  0.4669 -1.4448
    2POL     A6   14   1.016   1.930   1.685 -0.2205 -0.2581  0.5295
    2POL     A7   15   1.089   2.052   1.659 -0.6287  0.5215  0.3165
    2POL     A8   16   1.174   2.077   1.782  1.7265  0.2542  0.2693
    3POL     A1   17   0.311   0.856   2.002  0.3136  0.1069 -1.0075
    3POL     A2   18   0.399   0.740   1.980  0.5246 -1.0582 -0.4847
    3POL     A3   19   0.343   0.640   1.885 -0.0835  0.2400  1.1083
    3POL     A4   20   0.426   0.524   1.838 -0.9530  0.1817  0.1791
    3POL     A5   21   0.360   0.392   1.826  0.1083 -0.4416  0.7256
    3POL     A6   22   0.230   0.403   1.909  0.7389  0.2578  0.8193
    3POL     A7   23   0.229   0.370   2.058  0.8481  1.1358  1.0947
    3POL     A8   24   0.160   0.249   2.111  0.1749 -0.7875 -0.5739
    4POL     A1   25   1.561   1.479   1.522  0.6077  0.7135 -0.1531
    4POL     A2   26   1.480   1.470   1.638  1.3526 -0.5457  0.8004
    4POL     A3   27   1.542   1.557   1.745  0.8533  0.0950  0.4265
    4POL     A4   28   1.628   1.456   1.808  1.2580  0.1408 -0.2803
    4POL     A5   29   1.580   1.324   1.809 -0.6675  0.8456 -0.4453
    4POL     A6   30   1.636   1.232   1.706  0.6953 -0.1822  0.0030
    4POL     A7   31   1.540   1.197   1.602  0.6316  0.1632 -0.5135
    4POL     A8   32   1.554   1.216   1.452 -0.8314 -0.2162 -0.6751
    5POL     A1   33   0.653   0.298   0.987 -0.8854 -0.7134  0.2423
    5POL     A2   34   0.654   0.439   0.953 -0.3181 -1.0895  0.8171
    5POL     A3   35   0.577   0.507   1.052  0.4228 -0.2721  0.0449
    5POL     A4   36   0.661   0.481   1.165  0.7959 -0.4525 -1.3478
    5POL     A5   37   0.788   0.548   1.175 -0.1367 -0.0245  0.7755
    5POL     A6   38   0.813   0.670   1.109  0.0992 -0.2504 -0.0573
    5POL     A7   39   0.946   0.662   1.044  0.3590 -0.4721 -0.1132
    5POL     A8   40   0.999   0.515   1.028  0.0600  0.1569  0.2120
    6POL     A1   41   1.964   2.071   1.466  1.2449 -0.2640  0.6035
    6POL     A2   42   1.944   2.016   1.609 -1.1958  0.4977  0.7643
    6POL     A3   43   1.860   1.903   1.623 -0.6372 -0.4756  0.6713
    6POL     A4   44   1.719   1.936   1.657  0.7185  0.7070 -0.4839
    6POL     A5   45   1.672   2.062   1.590  0.8069  1.0668  1.0042
    6POL     A6   46   1.607   2.009   1.458 -0.3039 -0.9354  0.5633
    6POL     A7   47   1.697   1.948   1.349  0.6440 -0.9541 -0.4733
    6POL     A8   48   1.768   2.058   1.287  1.2890  0.3981  0.4002
    7POL     A1   49   0.567   0.997   1.158  0.8463 -0.5673  0.7759
    7POL     A2   50   0.561   1.125   1.249  0.1942 -0.2164  0.1476
    7POL     A3   51   0.453   1.213   1.201  0.5172 -1.2246  0.1077
    7POL     A4   52   0.345   1.276   1.286 -0.0182  0.0576  0.4140
    7POL     A5   53   0.380   1.292   1.440  0.3172 -0.1455  0.8162
    7POL     A6   54   0.418   1.413   1.498 -0.7606 -0.1175 -0.3591
    7POL     A7   55   0.502   1.487   1.403 -0.1492  0.3698 -0.0706
    7POL     A8   56   0.441   1.524   1.277  0.2006  0.0100  0.4155
    8POL     A1   57   1.122   0.010   0.141  0.0292  0.2045  0.3479
    8POL     A2   58   1.087   0.143   0.193  0.2254  0.2752 -0.5267
    8POL     A3   59   1.109   0.152   0.345 -0.2819  0.0398  0.3128
    8POL     A4   60   1.242   0.077   0.363  0.3504  0.1019 -0.2034
    8POL     A5   61   1.352   0.174   0.329  0.1205 -0.8923  0.3930
    8POL     A6   62   1.296   0.312   0.352  0.0010 -1.1106  0.3895
    8POL     A7   63   1.306   0.383   0.210 -0.8184  0.4674 -0.1513
    8POL     A8   64   1.344   0.518   0.242  0.4479  0.3635  0.9020
    9POL     A1   65   1.455   0.147   0.900 -0.7487 -0.2881 -0.7346
    9POL     A2   66   1.379   0.060   0.993  0.1748 -0.1290  0.8947
    9POL     A3   67   1.435  -0.065   1.055 -1.2214  0.3458  0.0772
    9POL     A4   68   1.552  -0.113   0.982  0.5748 -0.7660  0.5919
    9POL     A5   69   1.672  -0.082   1.063  0.2992 -0.5033  0.5642
    9POL     A6   70   1.769  -0.113   0.968 -0.7680 -0.0477  0.2860
    9POL     A7   71   1.786  -0.045   0.833  0.9680 -0.4155  0.2720
    9POL     A8   72   1.870   0.080   0.855 -0.6052 -0.4469 -0.6311
   10POL     A1   73   2.184   0.901   0.767 -0.0532  0.0119  0.1833
   10POL     A2   74   2.122   0.774   0.825 -0.0004  0.3672  0.4949
   10POL     A3   75   2.187   0.752   0.956  0.1677  0.3121 -0.1899
   10POL     A4   76   2.180   0.864   1.049  0.2592 -0.9434  0.1891
   10POL     A5   77   2.113   0.814   1.174  0.2900 -0.5448 -0.8707
   10POL     A6   78   2.193   0.723   1.256 -0.3141  0.0472 -0.4479
   10POL     A7   79   2.294   0.808   1.333 -0.9030  0.8142 -0.3771
   10POL     A8   80   2.445   0.815   1.299  0.0318  0.3186  0.4864
   11POL     A1   81   0.863   0.704   1.425  0.9255  0.2161  0.5742
   11POL     A2   82   0.728   0.686   1.489  0.4495  0.1745 -0.4512
   11POL     A3   83   0.724   0.565   1.582 -0.6924  0.9436  0.3575
   11POL     A4   84   0.629   0.452   1.587 -0.8530  0.0825  0.5020
   11POL     A5   85   0.628   0.382   1.446 -0.6996 -0.5685 -1.0492
   11POL     A6   86   0.756   0.309   1.424 -0.6037 -0.1262 -1.1449
   11POL     A7   87   0.753   0.175   1.452  0.4649 -0.3523  0.0472
   11POL     A8   88   0.658   0.173   1.572 -0.9848 -0.3216 -0.8629
   12POL     A1   89   1.435   0.559   0.680  0.9460 -0.0892  0.0187
   12POL     A2   90   1.455   0.707   0.726 -0.9291  0.6988 -0.1340
   12POL     A3   91   1.596   0.704   0.797 -1.2656  0.6107  0.5507
   12POL     A4   92   1.596   0.597   0.912 -0.1427 -0.2050  0.3861
   12POL     A5   93   1.557   0.624   1.058  0.8991  0.9842 -0.4785
   12POL     A6   94   1.548   0.771   1.092 -0.3976  0.3165 -1.1371
   12POL     A7   95   1.430   0.822   1.161 -1.1456 -1.2420 -1.0572
   12POL     A8   96   1.393   0.689   1.249  0.4849  0.2923  0.6276
   13CAT     A1   97   0.663   1.638   0.442  0.2693 -0.0367 -0.5230
   14CAT     A1   98   1.398   1.412   0.097  0.0495  0.1593  0.0386
   15CAT     A1   99   1.248   1.421   0.365  0.7720  0.2737  0.3577
   16CAT     A1  100   1.141   1.552   0.127  0.1805  0.1141  0.7046
   17CAT     A1  101   1.785   1.534   0.100  0.2997  0.6805 -0.2197
   18CAT     A1  102   1.731   1.777   0.386 -1.0640  1.6510  0.2334
   19CAT     A1  103   2.135   1.822   0.350 -1.4664  0.3131  0.1520
   20CAT     A1  104   1.904   1.539   0.515  0.4966 -1.3776 -0.6726
   21CAT     A1  105   1.917   1.809   0.152  0.5861 -0.3309 -1.0460
   22CAT     A1  106   0.079   1.582   0.530 -0.2154 -0.7844 -0.5502
   23CAT     A1  107   2.182   1.642   0.047  0.4048 -0.7688  0.4211
   24CAT     A1  108   0.326   1.764   0.481 -0.0383 -0.1538 -0.2562
   25CAT     A1  109   2.035   1.504   0.242 -0.1104 -0.2632  0.1123
   26CAT     A1  110   1.502   1.664   0.164 -0.2388  0.3545  0.3017
   27CAT     A1  111   1.298   1.759   0.352  0.0893 -0.2186  1.1090
   28CAT     A1  112   0.174   1.586   0.291 -0.3480  0.1772 -1.1173
   29CAT     A1  113   0.522   1.721   0.214  0.0221 -0.2195  0.2844
   30CAT     A1  114   0.400   1.402   0.451  0.4924  0.2521  0.3307
   31CAT     A1  115   0.907   1.701   0.252 -0.4284 -0.5910 -0.1062
   32CAT     A1  116   0.839   1.412   0.458 -0.4544 -0.0037 -0.0476
   33CAT     A1  117   0.411   1.402   0.121  0.3048 -0.4370 -0.5868
   34CAT     A1  118   0.625   1.300   0.306 -1.4072 -0.1126 -0.2927
   35CAT     A1  119   0.982   1.306   0.218  0.6219  0.1433  0.1194
   36CAT     A1  120   1.447   1.579   0.499  0.5340 -0.4373  0.7482
   37CAT     A1  121   1.062   1.652   0.478  0.4205 -0.0681  0.5900
   38CAT     A1  122   0.766   1.505   0.151 -0.6908  0.0875  0.7299
   39CAT     A1  123   1.656   1.456   0.361  0.1530 -0.6963 -0.6911
   40ANI     A1  124   0.956   1.569   0.125  0.8210  0.2788 -0.0142
   41ANI     A1  125   0.869   1.615   0.474  0.0049  0.1982  0.3408
   42ANI     A1  126   1.456   1.428   0.389 -0.0608 -0.1824 -0.3584
   43ANI     A1  127   1.210   1.350   0.176 -0.2166 -0.4952 -0.2514
   44ANI     A1  128   1.245   1.583   0.512 -0.0768  0.3837 -0.0731
   45ANI     A1  129   1.317   1.621   0.149 -0.3759 -0.8072 -0.2696
   46ANI     A1  130   0.601   1.393   0.132  0.5271  0.4967 -0.3801
   47ANI     A1  131   1.731   1.738   0.174  0.3018  0.2381  0.6425
   48ANI     A1  132   1.583   1.479   0.135  0.3650  0.2383 -0.4982
   49ANI     A1  133   0.373   1.601   0.212  0.1464 -0.7323 -0.1704
   50ANI     A1  134   1.852   1.456   0.340 -0.0427  0.0207 -0.0540
   51ANI     A1  135   2.122   1.794   0.133  0.2982  0.8485  0.1547
   52ANI     A1  136   1.988   1.558   0.054 -0.1008  0.0035 -0.1720
   53ANI     A1  137   2.103   1.552   0.510  0.4400  0.1171  0.0887
   54ANI     A1  138   1.699   1.589   0.507 -0.6695  0.0167 -0.5990
   55ANI     A1  139   1.487   1.721   0.369  0.0131  1.2245 -0.3092
   56ANI     A1  140   1.931   1.822   0.342 -0.6166  0.5108  0.7530
   57ANI     A1  141   0.151   1.769   0.422 -0.0334  0.2553 -1.0050
   58ANI     A1  142   0.253   1.522   0.491  0.3613 -0.2146  0.5250
   59ANI     A1  143   0.706   1.686   0.203  0.2773  0.8582 -0.9490
   60ANI     A1  144   0.581   1.464   0.459 -0.5554  0.4152  0.5764
   61ANI     A1  145   0.409   1.267   0.287 -0.0315  0.9163  0.1019
   62ANI     A1  146   1.112   1.762   0.312  0.1378  0.0307 -0.1109
   63ANI     A1  147   0.514   1.758   0.414 -0.0943 -0.7052 -0.0481
   64ANI     A1  148   0.802   1.292   0.300  0.2889 -0.5278  0.3647
   65ANI     A1  149   1.059   1.433   0.375  0.5303 -0.0929 -0.3221
   66ANI     A1  150   0.026   1.521   0.200  0.1863 -0.0076 -0.2761
   67POL     A1  151   1.436   0.961   0.290 -1.0888 -0.5667 -0.1118
   67POL     A2  152   1.494   1.105   0.322  1.4423 -0.0245 -0.1553
   67POL     A3  153   1.545   1.159   0.198 -0.1686  1.0236  0.4321
   67POL     A4  154   1.431   1.182   0.102  0.4514 -2.0938 -0.0914
   67POL     A5  155   1.405   1.058   0.026 -0.6625  0.3101 -1.1866
   67POL     A6  156   1.509   1.023  -0.088 -1.0324 -0.8683  0.8558
   67POL     A7  157   1.431   0.968  -0.207  0.7287  0.5259 -0.7783
   67POL     A8  158   1.312   1.033  -0.250 -0.8008 -0.1333 -1.7402
   68POL     A1  159   2.100   0.942   0.439 -1.1936  0.0657 -0.1839
   68POL     A2  160   2.046   0.841   0.524  0.3971 -0.1373 -0.1905
   68POL     A3  161   2.146   0.736   0.531 -0.8788 -0.1630 -0.3377
   68POL     A4  162   2.215   0.727   0.399 -0.3817  0.2893 -0.0502
   68POL     A5  163   2.341   0.807   0.422 -0.0115 -0.2118  0.0255
   68POL     A6  164   2.460   0.760   0.348 -0.3940  0.2715 -0.1110
   68POL     A7  165   2.417   0.694   0.219  0.3661 -0.6760  1.0586
   68POL     A8  166   2.494   0.715   0.092 -0.1846  1.0084  0.6632
   69POL     A1  167   0.808   0.416   0.109  0.8695  0.9516 -0.0954
   69POL     A2  168   0.769   0.549   0.094  0.5060  0.1678  0.0735
   69POL     A3  169   0.854   0.608  -0.021 -0.5783 -0.5494  0.4874
   69POL     A4  170   0.813   0.490  -0.118 -1.0051 -0.4728  0.1439
   69POL     A5  171   0.679   0.497  -0.187 -0.5525 -0.5693 -0.2906
   69POL     A6  172   0.678   0.419  -0.304 -0.5519  0.8378  0.0537
   69POL     A7  173   0.692   0.281  -0.263 -0.8282  0.4960 -0.3466
   69POL     A8  174   0.802   0.268  -0.156  0.8154  0.4380  0.6483
   70POL     A1  175   1.173   1.449   1.440  0.1256 -0.0756 -1.1932
   70POL     A2  176   1.276   1.548   1.416  0.3897  0.0445  0.3985
   70POL     A3  177   1.199   1.664   1.342 -0.5813 -1.1034  0.0175
   70POL     A4  178   1.076   1.740   1.403 -0.2812 -1.2980  1.0655
   70POL     A5  179   0.967   1.646   1.442  0.4132 -0.1900 -0.4761
   70POL     A6  180   0.872   1.645   1.342  0.6491 -0.3445 -1.0106
   70POL     A7  181   0.878   1.507   1.307 -0.5759 -0.4882 -0.4662
   70POL     A8  182   0.988   1.478   1.208 -0.9515 -0.1876  1.1863
   71POL     A1  183   1.744   1.185   0.701  0.9456  0.7220 -0.4644
   71POL     A2  184   1.721   1.167   0.843 -0.8200 -0.0198 -0.2442
   71POL     A3  185   1.844   1.111   0.916 -0.9735  0.2504 -0.2500
   71POL     A4  186   1.877   0.977   0.894 -0.3181 -0.1081  0.3543
   71POL     A5  187   1.862   0.897   1.016  0.0574 -0.4394  0.1557
   71POL     A6  188   1.847   0.962   1.147 -0.0468 -0.7064 -0.3155
   71POL     A7  189   1.701   0.969   1.176  0.4042  0.1422 -0.9116
   71POL     A8  190   1.646   1.102   1.153  0.3335  1.3766  0.4503
   72POL     A1  191   0.230   0.204   0.386 -0.6141  0.2833  0.2158
   72POL     A2  192   0.139   0.133   0.490  1.1439  0.5395 -0.4900
   72POL     A3  193   0.194   0.183   0.617 -0.2425 -0.0169  1.8534
   72POL     A4  194   0.233   0.066   0.699  0.7168 -0.8253 -0.6419
   72POL     A5  195   0.113  -0.019   0.737 -0.3125 -0.5197  0.5960
   72POL     A6  196  -0.021   0.038   0.693 -0.1170  0.3195 -0.0102
   72POL     A7  197  -0.051   0.168   0.775 -0.7670 -0.9459 -0.5338
   72POL     A8  198  -0.007   0.289   0.706  0.3822 -0.1372  0.0650
   73POL     A1  199   1.095   1.181   1.211 -0.7552 -0.4000  0.5720
   73POL     A2  200   1.087   1.072   1.102 -0.1141 -0.0324 -1.4668
   73POL     A3  201   1.063   1.140   0.971 -0.1313  0.2670  0.4705
   73POL     A4  202   1.159   1.128   0.870 -0.1456 -0.3845 -0.1212
   73POL     A5  203   1.245   1.243   0.905  0.1808  0.2775  0.7642
   73POL     A6  204   1.171   1.355   0.864 -0.6771  0.1763 -0.8321
   73POL     A7  205   1.246   1.391   0.720 -0.3654 -0.5116 -0.2134
   73POL     A8  206   1.372   1.311   0.672 -0.1637  0.4583 -0.8112
   74POL     A1  207   1.706   0.653   0.227 -0.9137  1.2639 -0.2027
   74POL     A2  208   1.574   0.690   0.264 -0.3666  0.7424 -0.6964
   74POL     A3  209   1.472   0.730   0.161 -0.1230 -0.0667  0.0312
   74POL     A4  210   1.442   0.623   0.042 -0.2724 -0.0670  0.0498
   74POL     A5  211   1.470   0.691  -0.084 -0.7102  0.4846  0.2946
   74POL     A6  212   1.544   0.605  -0.183  0.0740 -0.0973  1.0569
   74POL     A7  213   1.465   0.474  -0.203  0.2750  0.0816  0.9173
   74POL     A8  214   1.559   0.386  -0.148  0.6597  0.3570 -0.4375
   75POL     A1  215   2.111   0.257   1.358  0.7209  0.7188  1.2203
   75POL     A2  216   1.977   0.192   1.344  0.3071 -0.4070 -0.1340
   75POL     A3  217   1.987   0.142   1.203 -0.7210  1.3751 -0.9961
   75POL     A4  218   1.932   0.235   1.103 -0.7679  1.4279 -0.5897
   75POL     A5  219   1.861   0.338   1.182  0.1237 -0.6039 -0.2090
   75POL     A6  220   1.964   0.455   1.212 -1.2348 -0.7143 -0.3503
   75POL     A7  221   1.972   0.538   1.072  0.0088  0.4071  0.2063
   75POL     A8  222   1.981   0.454   0.950  0.8872  0.0500 -0.1120
   76POL     A1  223   0.992   0.175   0.822  1.3299 -0.8183 -1.1450
   76POL     A2  224   1.083   0.064   0.834 -0.1850  0.8127  0.3720
   76POL     A3  225   0.990  -0.035   0.885  0.3152  1.2066 -2.0511
   76POL     A4  226   0.990  -0.064   1.030 -0.0754 -0.0748 -0.4208
   76POL     A5  227   1.027   0.026   1.150  0.6734 -0.7535 -0.1353
   76POL     A6  228   0.893   0.082   1.200  0.2197 -0.4131  0.3394
   76POL     A7  229   0.831  -0.017   1.282 -0.5043 -1.0839  0.0070
   76POL     A8  230   0.753  -0.115   1.200  0.2587  0.5198 -0.1506
   77POL     A1  231   0.380   2.043   1.952 -0.4727 -0.3987  0.0201
   77POL     A2  232   0.289   2.086   2.065  1.1155 -0.7433 -0.8882
   77POL     A3  233   0.137   2.064   2.069 -0.2195 -0.6550  0.3766
   77POL     A4  234   0.140   1.927   2.097  0.6676 -0.5809  0.5109
   77POL     A5  235   0.221   1.864   1.985  0.1773 -0.9354 -0.6709
   77POL     A6  236   0.208   1.906   1.849  0.6092  0.3809  0.9829
   77POL     A7  237   0.149   1.779   1.783 -0.1863 -2.1803 -0.9657
   77POL     A8  238   0.007   1.799   1.762  0.1092 -1.0858 -0.3630
   78POL     A1  239   1.837   1.366   1.271 -0.8247 -0.0988  0.3929
   78POL     A2  240   1.818   1.523   1.302 -0.2381 -0.3787  0.8979
   78POL     A3  241   1.786   1.615   1.188  0.3332 -0.1672  0.3367
   78POL     A4  242   1.639   1.613   1.136  0.0147 -0.0368  0.6810
   78POL     A5  243   1.649   1.584   0.989 -0.7732  1.0083  0.3235
   78POL     A6  244   1.788   1.602   0.953 -0.9432  0.4220  0.4224
   78POL     A7  245   1.828   1.740   0.912 -0.3133 -0.6278  0.4210
   78POL     A8  246   1.775   1.790   0.783 -0.4963 -0.4513  0.5403
   79POL     A1  247   0.694   1.961   0.854  0.1932  1.4166 -0.0142
   79POL     A2  248   0.731   1.852   0.938  1.0777  0.1478 -0.3707
   79POL     A3  249   0.739   1.875   1.079  0.6854  0.1799 -0.0661
   79POL     A4  250   0.712   1.740   1.132  0.2245  0.0360  0.7162
   79POL     A5  251   0.582   1.703   1.071  0.0382  0.7601  0.2528
   79POL     A6  252   0.476   1.803   1.072  0.3973  0.3629  0.2893
   79POL     A7  253   0.519   1.950   1.102 -0.5262  0.3710  0.8811
   79POL     A8  254   0.428   2.059   1.056 -0.3810  0.6335 -0.5741
   80POL     A1  255   1.911   0.638   1.999  0.4329 -0.9881  0.1086
   80POL     A2  256   1.986   0.760   2.003  0.2902  0.1863 -0.1821
   80POL     A3  257   1.917   0.894   2.018 -0.6386  0.4291  0.4824
   80POL     A4  258   1.844   0.883   2.158 -1.4149 -1.2767  0.0614
   80POL     A5  259   1.928   0.883   2.282 -0.4163 -0.1121 -0.3060
   80POL     A6  260   1.936   1.033   2.310  0.3991 -0.0802 -2.1109
   80POL     A7  261   1.804   1.084   2.334 -0.0880  0.2810  0.0311
   80POL     A8  262   1.713   0.976   2.367 -0.2953 -0.0224 -0.3480
   81POL     A1  263   1.477   2.009   0.317 -0.3621 -0.2620  0.4981
   81POL     A2  264   1.506   2.093   0.444 -1.6660 -0.0171 -0.1731
   81POL     A3  265   1.431   2.033   0.557 -0.7530 -0.6989 -0.0767
   81POL     A4  266   1.306   1.967   0.525 -0.6697  0.6827 -0.2057
   81POL     A5  267   1.250   1.897   0.644  0.3601  0.2138 -0.4883
   81POL     A6  268   1.156   1.990   0.712  0.9671  0.1291 -0.3115
   81POL     A7  269   1.011   1.972   0.660 -0.5552  0.5106  0.4073
   81POL     A8  270   0.939   1.845   0.703  0.1025  0.3061  0.6242
   2.20000   2.20000   2.20000
