dense_salt_polymer
  270
    1POL     A1    1   0.959   0.898   0.411  1.8402  0.3873  0.3476
    1POL     A2    2   0.974   1.033   0.473 -0.4472  0.7618  1.0367
    1POL     A3    3   1.082   1.113   0.392  0.4080 -0.3316 -1.1623
    1POL     A4    4   1.174   1.012   0.364  0.7026 -0.0321  0.5733
    1POL     A5    5   1.283   1.105   0.321  0.6139 -0.3745  0.8437
    1POL     A6    6   1.348   1.159   0.439 -0.2364 -0.8248 -0.5368
    1POL     A7    7   1.346   1.094   0.571 -1.0630  0.3587 -0.6496
    1POL     A8    8   1.451   0.977   0.574  0.6390  1.1589 -0.2305
    2POL     A1    9   0.110   0.994   1.485  0.6984  0.1872  0.0292
    2POL     A2   10   0.233   1.084   1.495  1.0802  1.1295 -0.2075
    2POL     A3   11   0.182   1.228   1.461 -1.4736  1.3531  0.9021
    2POL     A4   12   0.246   1.326   1.557  0.4063  0.0435  0.0500
    2POL     A5   13   0.183   1.334   1.693 -0.6493 -0.0431 -0.1692
    2POL     A6   14   0.205   1.478   1.718 -0.7471 -0.2751 -0.9447
    2POL     A7   15   0.322   1.540   1.791 -1.5163  0.6048  0.1267
    2POL     A8   16   0.434   1.438   1.804 -0.5233 -0.0727 -0.0288
    3POL     A1   17   1.027   0.807   0.035  1.3620  0.9653 -0.5214
    3POL     A2   18   1.116   0.860   0.126 -0.5511  0.5650 -0.2414
    3POL     A3   19   1.193   0.714   0.147 -0.1801  0.8164 -0.6715
    3POL     A4   20   1.137   0.668   0.277 -0.6774 -0.0104  0.1293
    3POL     A5   21   1.226   0.545   0.321  0.8277  0.5032  0.5744
    3POL     A6   22   1.290   0.477   0.201  0.6445 -0.2511 -0.0730
    3POL     A7   23   1.206   0.366   0.140 -0.2515 -0.2946 -0.4284
    3POL     A8   24   1.242   0.227   0.137 -0.1815  0.1225 -0.1621
    4POL     A1   25   0.433   1.934   1.367  0.0701  0.3338  1.4057
    4POL     A2   26   0.533   1.817   1.364  1.2045  0.7638  0.8601
    4POL     A3   27   0.471   1.703   1.284 -0.9624 -0.4328  0.4433
    4POL     A4   28   0.404   1.757   1.169 -0.0972 -1.3476  0.1773
    4POL     A5   29   0.483   1.859   1.095 -0.4916 -0.1117  0.1840
    4POL     A6   30   0.478   1.791   0.958 -0.1798  0.4606 -0.5316
    4POL     A7   31   0.559   1.878   0.863 -0.7736  0.5335 -0.0042
    4POL     A8   32   0.600   1.777   0.756 -0.4827  0.1400 -0.5411
    5POL     A1   33   1.811   0.409   0.804 -0.0987 -0.3644 -1.0097
    5POL     A2   34   1.909   0.480   0.723 -0.6524 -0.9408  0.0400
    5POL     A3   35   2.043   0.428   0.669 -0.5712 -0.8632  0.5480
    5POL     A4   36   2.043   0.420   0.520  1.2125 -0.0892  0.1267
    5POL     A5   37   1.915   0.416   0.465  0.6240  0.7080 -0.0444
    5POL     A6   38   1.868   0.274   0.465 -0.2820 -0.6364  0.5728
    5POL     A7   39   1.867   0.232   0.333  0.1355 -0.3810  0.4994
    5POL     A8   40   1.994   0.141   0.304 -0.0163  0.9015 -0.5266
    6POL     A1   41   1.879   0.779   1.066  1.6252 -0.2971 -1.7286
    6POL     A2   42   1.821   0.768   1.204  0.1069  0.0140 -0.1114
    6POL     A3   43   1.859   0.903   1.258  0.1996 -0.8435  0.2965
    6POL     A4   44   1.981   0.862   1.328 -0.9537 -0.5186 -0.4786
    6POL     A5   45   2.080   0.831   1.220 -0.1092 -0.7244 -0.2341
    6POL     A6   46   2.080   0.965   1.156  0.3117  0.4498 -0.8827
    6POL     A7   47   2.225   1.048   1.162 -0.2911  0.3164 -0.0241
    6POL     A8   48   2.333   0.957   1.122  0.8481  0.0277  1.1223
    7POL     A1   49   1.828   0.215   2.171  0.0602 -0.6174  0.3453
    7POL     A2   50   1.781   0.304   2.067  0.5311  0.4161  0.5286
    7POL     A3   51   1.839   0.311   1.927  0.7582 -0.2946 -0.7075
    7POL     A4   52   1.731   0.289   1.825 -0.1782  0.0588 -0.0779
    7POL     A5   53   1.589   0.296   1.887 -0.2710  0.2331  0.0502
    7POL     A6   54   1.543   0.248   2.030 -0.7416  0.1968 -0.3673
    7POL     A7   55   1.491   0.112   2.053  0.3202 -1.0467 -0.4449
    7POL     A8   56   1.354   0.101   2.006 -0.3540 -0.6070  0.3970
    8POL     A1   57   1.629   1.246   0.987  0.7048 -0.2481 -1.3285
    8POL     A2   58   1.497   1.296   1.021  0.2973 -0.2374  0.2820
    8POL     A3   59   1.387   1.216   0.986  0.4950 -0.0097  0.0511
    8POL     A4   60   1.433   1.142   0.861  0.8130 -0.6879  0.0965
    8POL     A5   61   1.485   1.018   0.934  0.6299 -0.2397 -0.2738
    8POL     A6   62   1.380   0.930   0.968 -0.1099  0.3393 -1.0692
    8POL     A7   63   1.409   0.818   0.878  0.9045 -0.5898  0.4307
    8POL     A8   64   1.546   0.746   0.848 -0.2892  0.6924  0.1729
    9POL     A1   65   1.282   0.959   2.094  0.6983 -0.3327  0.1073
    9POL     A2   66   1.431   0.959   2.077 -0.8787 -0.2693 -0.1078
    9POL     A3   67   1.501   0.827   2.088 -0.1966  0.6105 -1.2815
    9POL     A4   68   1.448   0.740   1.981  1.0414 -0.8200  0.2755
    9POL     A5   69   1.502   0.765   1.846 -1.0833  1.2962 -0.6345
    9POL     A6   70   1.646   0.744   1.879  0.1505 -0.3740  0.9243
    9POL     A7   71   1.711   0.868   1.898  0.4261 -1.6141  0.2687
    9POL     A8   72   1.647   0.981   1.830 -0.4169  0.1868 -0.0553
   10POL     A1   73   0.271   1.442   0.710 -0.8016 -0.4732  0.6811
   10POL     A2   74   0.222   1.481   0.848 -0.5204  0.7207 -0.3148
   10POL     A3   75   0.171   1.352   0.900  0.3007 -1.0192  0.0236
   10POL     A4   76   0.071   1.384   0.999  0.1102  0.1513  0.3392
   10POL     A5   77   0.045   1.527   1.051 -0.4413 -0.4869  0.5063
   10POL     A6   78   0.125   1.587   1.156 -0.1242 -0.0739 -1.0957
   10POL     A7   79   0.049   1.536   1.276  0.0568 -0.3086 -0.8819
   10POL     A8   80   0.053   1.381   1.288  0.1530 -0.1548 -0.8148
   11POL     A1   81   2.188   1.463   0.434 -0.3434 -0.5894 -0.7774
   11POL     A2   82   2.099   1.376   0.532 -1.1156 -0.6640  0.3954
   11POL     A3   83   1.967   1.351   0.500  0.1132  0.9004  0.8145
   11POL     A4   84   1.962   1.238   0.414  1.0404 -0.6593 -1.0537
   11POL     A5   85   1.955   1.112   0.510 -0.6297 -0.2331 -0.4197
   11POL     A6   86   2.015   1.138   0.653 -0.8720  0.4252 -0.4649
   11POL     A7   87   1.935   1.160   0.785 -0.0912  0.1655 -0.0343
   11POL     A8   88   1.945   1.045   0.890 -0.2616 -0.9042  0.1755
   12POL     A1   89   0.734   1.210   0.700  0.5782 -1.2860 -0.1075
   12POL     A2   90   0.699   1.267   0.565 -0.1223 -0.2741  0.4187
   12POL     A3   91   0.621   1.145   0.494  0.6861  0.4969  0.0714
   12POL     A4   92   0.688   1.047   0.410  0.2284  0.1148  0.4619
   12POL     A5   93   0.669   0.904   0.452 -0.7059  0.2161  0.9054
   12POL     A6   94   0.532   0.865   0.507  0.2295 -0.3132  1.4180
   12POL     A7   95   0.430   0.913   0.403 -0.4586 -0.0029 -1.4755
   12POL     A8   96   0.465   0.899   0.265  0.0136  0.8141 -0.0655
   13CAT     A1   97   1.028   1.757   0.077 -0.3298 -1.1106  0.4760
   14CAT     A1   98   1.816   1.622   2.122  0.7560 -0.2439 -0.0416
   15CAT     A1   99   1.831   1.337   2.163 -0.0931  0.5739 -0.2040
   16CAT     A1  100   1.045   1.225   2.117 -0.8251 -0.5780  0.2897
   17CAT     A1  101   2.040   1.451   1.989 -0.2098  0.1973  0.3005
   18CAT     A1  102   0.287   1.761   2.072  0.4466  0.5432  0.3652
   19CAT     A1  103   0.769   1.857   0.148 -0.4239 -0.7196 -0.4149
   20CAT     A1  104   0.000   1.711   2.170 -0.5640  0.1819 -1.0519
   21CAT     A1  105   0.183   1.479   2.023  0.5618 -0.4877 -1.0917
   22CAT     A1  106   0.400   1.815   0.160  0.4454  0.6820 -0.2411
   23CAT     A1  107   0.669   1.651   2.125  0.8029  0.3446 -0.4920
   24CAT     A1  108   0.971   1.714   0.371  0.5951  0.2982 -0.3763
   25CAT     A1  109   0.206   1.588   0.125 -0.0315 -1.4961 -0.7569
   26CAT     A1  110   0.047   1.340   2.199 -0.2759  0.9964  1.1799
   27CAT     A1  111   1.361   1.598   2.090  0.3340 -0.2914 -0.0008
   28CAT     A1  112   0.612   1.613   0.197  0.2284  0.2269  0.6476
   29CAT     A1  113   0.992   1.582   2.000  1.2994  0.0777  0.2713
   30CAT     A1  114   1.257   1.351   1.877  0.4099  0.0442  0.3407
   31CAT     A1  115   0.793   1.383   2.183  0.2195  0.2109  0.3987
   32CAT     A1  116   1.622   1.468   2.020  0.0904 -0.0394  0.4122
   33CAT     A1  117   0.435   1.450   0.001 -0.2338  0.3622 -0.8475
   34CAT     A1  118   0.874   1.337   1.890  0.0248 -1.4769  0.1475
   35CAT     A1  119   0.915   1.483   0.198 -0.9385 -0.2210 -0.2631
   36CAT     A1  120   1.416   1.298   2.106  0.2923 -0.3245  0.2042
   37CAT     A1  121   1.140   1.467   0.061 -0.5291  0.1914  0.9801
   38CAT     A1  122   1.602   1.491   0.078  0.1847 -0.2521  0.1455
   39CAT     A1  123   2.004   1.521   0.109  0.2740 -0.3894  0.8056
   40ANI     A1  124   0.027   1.368   1.972  0.2994  0.0648  0.1387
   41ANI     A1  125   1.230   1.241   2.067  0.6587  0.4761  0.1085
   42ANI     A1  126   1.815   1.522   0.103  0.0004 -0.3241 -0.1334
   43ANI     A1  127   2.045   1.331   0.001  0.9163  0.3445 -0.4720
   44ANI     A1  128   1.821   1.446   1.969 -0.5174 -0.2977  0.5316
   45ANI     A1  129   1.402   1.449   0.064 -0.2397 -0.3504  0.8032
   46ANI     A1  130   0.635   1.458   0.043 -0.6241 -0.0987  0.2066
   47ANI     A1  131   0.242   1.411   0.006 -0.9035  0.1368 -0.1143
   48ANI     A1  132   2.009   1.613   2.107  0.0161  0.3101 -0.0113
   49ANI     A1  133   1.146   1.625   2.146  0.7623 -0.4541  0.2814
   50ANI     A1  134   0.124   1.666   2.012 -0.4398 -0.0042  0.0060
   51ANI     A1  135   0.425   1.643   2.097 -0.1348  0.2774  0.1512
   52ANI     A1  136   0.011   1.591   0.144 -0.7814 -0.3658  0.5961
   53ANI     A1  137   0.946   1.854   0.228  0.5358  0.0166 -0.2541
   54ANI     A1  138   1.074   1.583   0.230  0.7349  0.6517  0.4170
   55ANI     A1  139   1.600   1.641   2.123  0.0463 -0.2136 -0.5117
   56ANI     A1  140   0.213   1.798   0.065 -0.6660 -0.2679  0.1626
   57ANI     A1  141   0.592   1.799   0.104  0.2944 -0.5317  0.1133
   58ANI     A1  142   0.851   1.702   0.012 -0.4989 -0.2001 -0.0023
   59ANI     A1  143   0.796   1.509   2.016 -0.8245 -0.0642  0.3428
   60ANI     A1  144   1.427   1.452   1.957  0.5665 -0.1160 -0.8485
   61ANI     A1  145   0.798   1.602   0.336  0.0366  0.4104 -0.1674
   62ANI     A1  146   0.980   1.362   0.044  0.0262  0.0826 -0.9128
   63ANI     A1  147   0.849   1.232   2.039  0.5698  0.0331 -0.1473
   64ANI     A1  148   1.073   1.412   1.891  0.3061 -0.7499  0.7079
   65ANI     A1  149   1.626   1.316   2.158  0.0170 -0.2408 -0.0321
   66ANI     A1  150   0.404   1.610   0.224 -0.2069  0.4711  0.4337
   67POL     A1  151   1.578   0.805   1.380  0.2431 -0.6183 -0.2579
   67POL     A2  152   1.449   0.759   1.429  0.0386  0.4112 -0.4463
   67POL     A3  153   1.349   0.814   1.335 -0.7035  0.5089  0.0577
   67POL     A4  154   1.307   0.707   1.237 -0.0759 -0.2372 -0.5441
   67POL     A5  155   1.373   0.571   1.245  0.0977  1.1330  1.4999
   67POL     A6  156   1.501   0.539   1.337 -0.8145 -0.3905 -0.1159
   67POL     A7  157   1.456   0.487   1.461 -0.4543 -0.3605 -0.1592
   67POL     A8  158   1.413   0.576   1.578  0.3954 -0.8776  0.6469
   68POL     A1  159   0.345   0.375   0.321  0.0742 -0.7744 -0.0429
   68POL     A2  160   0.337   0.474   0.433  1.6384 -1.6762  0.0244
   68POL     A3  161   0.457   0.497   0.512 -0.8500 -0.0747 -0.3144
   68POL     A4  162   0.593   0.420   0.478  0.6667 -0.7610 -0.5013
   68POL     A5  163   0.715   0.500   0.475 -0.6343  0.3104 -1.2777
   68POL     A6  164   0.801   0.490   0.599  0.1362  0.1463 -1.0871
   68POL     A7  165   0.903   0.600   0.608  1.0838  0.5208 -0.3322
   68POL     A8  166   0.988   0.563   0.485 -0.2018  0.4039  1.0539
   69POL     A1  167   1.620   1.477   0.418 -0.1672  0.6184 -0.3165
   69POL     A2  168   1.624   1.617   0.391  0.0778 -1.0301 -0.3924
   69POL     A3  169   1.497   1.676   0.369 -1.0186  0.6854 -0.7204
   69POL     A4  170   1.469   1.732   0.514  0.0940  0.0528  0.6671
   69POL     A5  171   1.540   1.865   0.535  0.1241  0.0308 -0.8651
   69POL     A6  172   1.508   1.942   0.416 -0.0955 -0.4207 -0.0514
   69POL     A7  173   1.364   1.945   0.355 -1.5734  1.2855  1.1024
   69POL     A8  174   1.293   1.808   0.396  0.1793 -0.3747 -0.7722
   70POL     A1  175   1.010   2.134   0.859  0.3975  0.1012 -0.7268
   70POL     A2  176   1.056   2.266   0.850  0.1037 -0.6389 -0.8399
   70POL     A3  177   1.206   2.285   0.894 -0.5210  0.3979 -0.0870
   70POL     A4  178   1.277   2.156   0.915  0.2400 -0.0832  0.2194
   70POL     A5  179   1.304   2.093   1.049 -0.4504  1.3575 -0.2509
   70POL     A6  180   1.273   2.192   1.156 -0.3181  1.0193  0.0682
   70POL     A7  181   1.154   2.146   1.225  1.4398  0.7811 -0.0245
   70POL     A8  182   1.081   2.064   1.123  0.0804 -0.4413  0.5331
   71POL     A1  183   1.852   0.764   1.619 -0.4314 -1.1267  0.1969
   71POL     A2  184   1.940   0.803   1.729 -1.1737 -0.9056 -0.1190
   71POL     A3  185   2.025   0.709   1.801 -0.9793  0.4284 -1.1668
   71POL     A4  186   1.987   0.572   1.769  0.7371  0.1246  0.8281
   71POL     A5  187   2.102   0.511   1.683  0.9298 -0.1310 -0.4472
   71POL     A6  188   2.194   0.425   1.756  0.1603  0.4568  0.8157
   71POL     A7  189   2.191   0.284   1.714  0.0267  0.1611  0.7014
   71POL     A8  190   2.057   0.232   1.657 -0.6627  0.1636  0.1177
   72POL     A1  191   1.908   0.037   1.577 -0.2809  0.0054  1.9121
   72POL     A2  192   1.796   0.077   1.496  0.3593  0.7017  0.0710
   72POL     A3  193   1.707  -0.045   1.511 -0.4852 -0.0164  0.4924
   72POL     A4  194   1.662  -0.105   1.384  0.2918  0.8479 -0.2175
   72POL     A5  195   1.699  -0.247   1.391  1.4056 -0.7404 -0.5104
   72POL     A6  196   1.643  -0.334   1.506  0.4638 -0.3995  0.5201
   72POL     A7  197   1.727  -0.459   1.503  0.2138  0.0865  0.3227
   72POL     A8  198   1.670  -0.599   1.482  0.8189  1.0227  0.7160
   73POL     A1  199   1.640   1.258   1.756 -1.4210 -0.6709  0.5812
   73POL     A2  200   1.671   1.334   1.625  0.5363  0.2571  0.6383
   73POL     A3  201   1.543   1.410   1.596 -0.4067 -0.1475  0.2116
   73POL     A4  202   1.451   1.299   1.572 -0.4414 -0.6657  0.5478
   73POL     A5  203   1.402   1.251   1.438 -0.0017  0.4669  0.6169
   73POL     A6  204   1.492   1.259   1.324 -0.5346  0.9631 -0.0318
   73POL     A7  205   1.629   1.219   1.366 -1.1676 -2.0608  0.0111
   73POL     A8  206   1.686   1.075   1.349  0.7154 -0.2575  0.8550
   74POL     A1  207   0.872   1.934   1.454 -0.8521  0.6386 -0.9680
   74POL     A2  208   0.956   1.853   1.539  0.1671  0.4177  0.7644
   74POL     A3  209   0.867   1.752   1.589  0.2076  1.4275  1.5990
   74POL     A4  210   0.871   1.761   1.738  0.8148  0.0841  0.1821
   74POL     A5  211   0.849   1.895   1.811  0.4412  0.1746  0.3208
   74POL     A6  212   0.688   1.898   1.837  0.0778  0.7501 -0.4391
   74POL     A7  213   0.601   1.938   1.725 -0.2376  0.0535  1.0043
   74POL     A8  214   0.564   1.813   1.641 -1.4045  0.7011 -0.6965
   75POL     A1  215   1.253   1.464   1.052 -0.4777 -0.0544  0.1873
   75POL     A2  216   1.144   1.397   1.125  0.2172 -0.2398 -0.2303
   75POL     A3  217   1.046   1.498   1.168 -0.6846  1.6053 -0.2803
   75POL     A4  218   1.024   1.608   1.057  0.9755 -0.7611 -0.2553
   75POL     A5  219   1.015   1.730   1.157  0.0953 -0.3448 -0.4822
   75POL     A6  220   1.060   1.682   1.296 -1.7467 -0.3322  0.1826
   75POL     A7  221   0.956   1.616   1.381  0.7696 -1.1528 -1.0132
   75POL     A8  222   0.823   1.602   1.319 -0.8837 -1.4986  0.9751
   76POL     A1  223   1.884   1.850   1.948 -0.3694  0.0115  0.2555
   76POL     A2  224   1.962   1.895   1.828  0.3766  0.1924  0.6708
   76POL     A3  225   2.064   2.009   1.843  0.2778  1.3340  0.1049
   76POL     A4  226   2.141   1.997   1.969  0.2080  0.6181 -0.5034
   76POL     A5  227   2.269   1.916   1.968 -0.0516 -0.8040 -0.6994
   76POL     A6  228   2.359   1.965   1.868 -0.4151  0.2084  0.0961
   76POL     A7  229   2.362   1.882   1.750 -0.0683 -0.6150  0.0228
   76POL     A8  230   2.228   1.885   1.664 -1.3159 -0.6810 -0.0053
   77POL     A1  231   0.946   0.133   2.132  0.0515 -1.1591 -0.6642
   77POL     A2  232   0.813   0.162   2.076  0.3639 -0.1170  0.1579
   77POL     A3  233   0.724   0.102   2.182 -1.3387  2.0315 -0.6251
   77POL     A4  234   0.790  -0.012   2.251  0.6244  0.3113 -1.1117
   77POL     A5  235   0.712  -0.076   2.377 -0.9136  0.1621  0.4750
   77POL     A6  236   0.616  -0.167   2.344 -1.0531 -0.5339 -0.2080
   77POL     A7  237   0.541  -0.178   2.458  0.0877 -0.5206 -0.4618
   77POL     A8  238   0.482  -0.057   2.525 -0.3439 -0.0018  0.8725
   78POL     A1  239   0.084   2.185   0.546  0.6150  2.1947 -0.0239
   78POL     A2  240   0.049   2.095   0.662  0.4558  0.5692 -0.1746
   78POL     A3  241   0.029   1.977   0.569  0.4424 -0.4056  0.1876
   78POL     A4  242  -0.109   1.935   0.588 -1.1337 -0.4811 -0.4432
   78POL     A5  243  -0.160   1.952   0.730  0.2783  0.0058  0.0107
   78POL     A6  244  -0.131   1.820   0.789  0.7960  0.2548 -0.0469
   78POL     A7  245  -0.255   1.737   0.752 -0.1610  0.3255 -0.5210
   78POL     A8  246  -0.350   1.795   0.645  1.3337  0.4544  0.0714
   79POL     A1  247   0.985   0.008   1.841 -0.1311  0.8214 -0.8643
   79POL     A2  248   0.918   0.146   1.846 -0.2711  0.6926  0.5535
   79POL     A3  249   0.807   0.177   1.750  0.0302 -0.0099  0.2530
   79POL     A4  250   0.671   0.147   1.806  0.1566 -0.5026 -1.3162
   79POL     A5  251   0.613   0.271   1.849  0.1347 -0.6592 -0.1873
   79POL     A6  252   0.505   0.273   1.743  0.3316  0.8341 -0.0047
   79POL     A7  253   0.356   0.274   1.768  0.0643  0.2817  0.2675
   79POL     A8  254   0.310   0.189   1.886 -0.3929 -0.3678 -0.1094
   80POL     A1  255   0.231   0.867   2.006 -0.0276  0.8664 -0.0052
   80POL     A2  256   0.139   0.851   2.126  0.1682  0.5800 -0.5205
   80POL     A3  257   0.044   0.755   2.129 -0.5587  0.0920 -0.1942
   80POL     A4  258   0.034   0.697   2.265 -0.8003  0.1662  1.0655
   80POL     A5  259   0.004   0.807   2.367 -0.1345 -0.0656  0.8784
   80POL     A6  260   0.137   0.828   2.430  0.7254  0.2819 -0.2303
   80POL     A7  261   0.231   0.917   2.364  1.2958  0.2554  0.3931
   80POL     A8  262   0.182   1.051   2.393 -0.3445 -0.8794 -0.7666
   81POL     A1  263   0.385   0.604   1.199  0.2226  0.7550 -0.3463
   81POL     A2  264   0.316   0.677   1.310 -0.1047  0.4049 -0.6939
   81POL     A3  265   0.413   0.740   1.408 -0.1037  0.9684  0.1958
   81POL     A4  266   0.477   0.633   1.498  0.5479  1.0145 -0.9708
   81POL     A5  267   0.434   0.683   1.641  0.2112  0.0441 -0.6859
   81POL     A6  268   0.402   0.828   1.653 -0.5852 -0.0180  0.0731
   81POL     A7  269   0.528   0.904   1.669 -0.5231  1.1910  0.2446
   81POL     A8  270   0.583   0.938   1.541 -0.2171  0.8598 -0.0939
   2.20000   2.20000   2.20000
