dense_salt_polymer
  270
    1POL     A1    1   0.687   0.024   0.877  0.6987  1.6406  0.5192
    1POL     A2    2   0.722   0.035   1.018  0.1226  0.2748 -0.1845
    1POL     A3    3   0.605   0.047   1.108  0.0792 -0.1111  0.0682
    1POL     A4    4   0.545   0.189   1.100 -0.4231  0.0568  0.7009
    1POL     A5    5   0.432   0.155   1.021  0.6986  0.3406  1.0909
    1POL     A6    6   0.301   0.098   1.066 -0.5650  0.6459  1.0513
    1POL     A7    7   0.196   0.198   1.073 -1.1976  0.9340  0.1906
    1POL     A8    8   0.257   0.313   1.154  0.2021 -0.1742 -0.7764
    2POL     A1    9   0.288   1.937   1.634  0.6141 -0.8977 -1.0749
    2POL     A2   10   0.236   2.026   1.521 -0.1931 -0.3186 -0.1288
    2POL     A3   11   0.095   1.983   1.495 -0.4834 -1.1614  0.8698
    2POL     A4   12   0.006   1.931   1.602  0.4759  0.5065  0.0731
    2POL     A5   13  -0.123   1.993   1.623 -0.1489 -1.2773 -0.9292
    2POL     A6   14  -0.112   2.124   1.709 -0.6709  0.0953  0.4275
    2POL     A7   15  -0.090   2.127   1.848 -0.5297  0.3794  0.0638
    2POL     A8   16   0.036   2.056   1.878 -0.6822 -0.1226  0.8366
    3POL     A1   17   0.969   1.067   0.382  0.1214  0.5340  1.0256
    3POL     A2   18   0.902   1.180   0.444  0.3625 -0.0145 -0.8135
    3POL     A3   19   0.797   1.236   0.364 -0.2474  0.2376 -0.0098
    3POL     A4   20   0.696   1.156   0.425 -0.2634  0.3044 -0.2428
    3POL     A5   21   0.605   1.238   0.502  0.4260 -0.6126 -1.1841
    3POL     A6   22   0.610   1.380   0.449 -0.4151 -0.2910 -0.2751
    3POL     A7   23   0.491   1.394   0.361 -0.9025  1.9483 -0.1821
    3POL     A8   24   0.367   1.324   0.406 -0.7212  0.0575 -0.4044
    4POL     A1   25   1.057   2.047   1.113  0.0523 -0.3589 -0.2085
    4POL     A2   26   0.970   2.000   1.012  0.2240 -0.4562 -0.2466
    4POL     A3   27   0.892   1.879   1.070 -0.0622 -0.8323 -0.6153
    4POL     A4   28   0.967   1.772   1.148  0.2013 -1.2515 -0.5042
    4POL     A5   29   0.963   1.645   1.063  0.8417 -1.2498  0.5208
    4POL     A6   30   1.080   1.639   0.966  0.3674  0.3254 -0.5887
    4POL     A7   31   1.196   1.719   1.015  0.8663  0.0456 -0.0942
    4POL     A8   32   1.307   1.645   0.992 -0.6651  0.0896  0.4724
    5POL     A1   33   0.013   0.410   1.223 -0.3211 -0.0946 -1.3897
    5POL     A2   34  -0.065   0.392   1.347  0.4672 -0.2540 -0.4928
    5POL     A3   35  -0.076   0.249   1.377 -1.3778  0.1459  0.0926
    5POL     A4   36  -0.166   0.176   1.280  0.4367 -0.0766  0.5634
    5POL     A5   37  -0.265   0.101   1.359 -1.0461 -0.5454 -0.6676
    5POL     A6   38  -0.194  -0.041   1.361 -0.4713 -0.6504  0.8846
    5POL     A7   39  -0.289  -0.135   1.293  0.1422 -1.0698 -0.9307
    5POL     A8   40  -0.239  -0.143   1.135  0.4959 -1.2785 -0.1110
    6POL     A1   41   1.000   0.055   0.336 -0.3247 -0.4072  0.2531
    6POL     A2   42   1.087  -0.029   0.424 -0.7248 -0.6185 -0.4385
    6POL     A3   43   1.128  -0.162   0.376  1.5995 -0.2443 -0.7371
    6POL     A4   44   1.005  -0.245   0.399  1.0351  0.5136  0.1989
    6POL     A5   45   1.025  -0.305   0.539 -0.5321  0.6249  1.0859
    6POL     A6   46   1.131  -0.404   0.582 -0.3694 -0.1017  0.4722
    6POL     A7   47   1.094  -0.534   0.506  1.3482  0.0373 -0.4165
    6POL     A8   48   1.062  -0.639   0.611  1.2439  0.0045 -0.2919
    7POL     A1   49   0.536   0.272   0.493 -0.7995  0.3193  0.4180
    7POL     A2   50   0.540   0.315   0.345  0.3323 -0.6446 -1.3751
    7POL     A3   51   0.469   0.231   0.242 -1.0568  0.5002  0.2694
    7POL     A4   52   0.524   0.095   0.292 -0.5676  0.5580  0.5511
    7POL     A5   53   0.589   0.037   0.161 -1.9152  0.0840 -0.0258
    7POL     A6   54   0.505   0.056   0.034  0.6566 -0.0134  0.3551
    7POL     A7   55   0.356   0.022   0.035 -0.6765  0.0202  0.7066
    7POL     A8   56   0.330  -0.071   0.149  0.5349 -0.8892 -0.7376
    8POL     A1   57   2.034   1.862   0.517 -1.1675  0.9017  0.5067
    8POL     A2   58   2.035   1.728   0.449  1.0852  0.5697 -0.0222
    8POL     A3   59   2.136   1.642   0.510 -0.7441 -0.4355 -0.9165
    8POL     A4   60   2.272   1.668   0.456 -0.1235 -0.0806  0.8463
    8POL     A5   61   2.378   1.567   0.507  0.6701 -0.1033 -0.2190
    8POL     A6   62   2.469   1.641   0.610 -1.0951  0.6624  0.8570
    8POL     A7   63   2.544   1.775   0.574 -0.6213  0.3858  0.6906
    8POL     A8   64   2.436   1.877   0.581  0.0807  0.0339 -0.3840
    9POL     A1   65   1.961   0.649   1.408  0.2026  0.1687 -0.2902
    9POL     A2   66   1.869   0.573   1.326  1.0277  0.9408 -0.2610
    9POL     A3   67   1.831   0.430   1.383 -0.2045 -0.5822 -0.2375
    9POL     A4   68   1.711   0.418   1.453  0.9547 -0.1208  0.2916
    9POL     A5   69   1.603   0.502   1.420  1.7947  1.0688  0.6755
    9POL     A6   70   1.528   0.493   1.292  1.5564  0.4203  0.6042
    9POL     A7   71   1.586   0.573   1.174  1.2308 -0.2521 -0.2140
    9POL     A8   72   1.596   0.702   1.231 -0.6526 -0.5322  0.8840
   10POL     A1   73   1.113   1.152   1.070 -0.1711 -0.9066  1.3595
   10POL     A2   74   1.052   1.045   0.983 -0.0711  0.0935 -0.2659
   10POL     A3   75   1.184   1.004   0.916 -0.3084 -1.0343 -0.2168
   10POL     A4   76   1.230   0.877   0.967 -0.0892  0.9076  0.3051
   10POL     A5   77   1.367   0.903   1.031 -0.6284  0.3649 -0.8717
   10POL     A6   78   1.340   1.007   1.148 -0.6188  0.7265  0.1776
   10POL     A7   79   1.315   0.923   1.271  0.5799  0.4642 -0.3997
   10POL     A8   80   1.375   0.785   1.292  0.9378  0.0666 -1.1711
   11POL     A1   81   0.730   0.374   1.265 -1.4520  0.2028  0.2992
   11POL     A2   82   0.745   0.399   1.398 -0.1185  0.3514  0.1443
   11POL     A3   83   0.741   0.283   1.483 -0.2097  0.3124  0.6706
   11POL     A4   84   0.784   0.135   1.470  0.3783  0.1782 -0.7973
   11POL     A5   85   0.695   0.083   1.575 -0.3979  0.2375 -1.2819
   11POL     A6   86   0.565   0.090   1.517  0.5082  1.1448  0.0541
   11POL     A7   87   0.536  -0.055   1.483  0.3298  0.2605 -0.1803
   11POL     A8   88   0.590  -0.070   1.337 -0.5232 -0.9606 -0.0903
   12POL     A1   89   0.653   0.589   0.552  0.0945  0.3571 -0.6834
   12POL     A2   90   0.642   0.689   0.657  0.4716  0.5530 -0.3540
   12POL     A3   91   0.537   0.621   0.728  0.4935 -0.2073  0.3711
   12POL     A4   92   0.416   0.697   0.774  0.3643  0.6786 -0.7756
   12POL     A5   93   0.449   0.686   0.913 -0.1030  0.2407 -0.1008
   12POL     A6   94   0.328   0.609   0.958 -0.3434  0.5382  0.2943
   12POL     A7   95   0.316   0.462   0.924  0.3609 -0.1051  0.0300
   12POL     A8   96   0.326   0.419   0.783 -0.6622 -0.7044 -0.0943
   13CAT     A1   97   1.486   1.780   0.161 -0.0499  0.3332 -0.1195
   14CAT     A1   98   1.948   1.363   0.015  0.4730  0.6428  0.3529
   15CAT     A1   99   1.780   1.606   0.156 -0.4610  1.2193  0.5227
   16CAT     A1  100   1.714   1.768   2.071  0.1329 -0.7073 -0.1994
   17CAT     A1  101   2.041   1.694   2.167  0.2189 -0.5725 -0.0456
   18CAT     A1  102   0.125   1.311   2.175  0.5148 -0.5086 -0.4883
   19CAT     A1  103   0.462   1.485   0.059 -0.9117  0.2620 -0.1197
   20CAT     A1  104   0.341   1.473   1.928  0.0410  0.2878 -0.7660
   21CAT     A1  105   0.222   1.626   0.044  0.2931 -0.4690 -0.3713
   22CAT     A1  106   0.433   1.733   2.066  0.1100  1.2183  0.1599
   23CAT     A1  107   0.602   1.719   0.126 -0.0465  0.4949  0.2440
   24CAT     A1  108   0.689   1.530   2.109 -0.2751 -1.3101  0.0320
   25CAT     A1  109   2.175   1.344   1.963  0.1359 -0.7017 -0.7176
   26CAT     A1  110   0.070   1.645   1.974  0.0821  0.0177  0.0217
   27CAT     A1  111   1.931   1.598   1.894  1.4841 -0.0730 -0.4128
   28CAT     A1  112   0.845   1.786   2.150 -0.2848  0.3334 -0.2922
   29CAT     A1  113   1.086   1.650   2.146 -0.1329  0.2160 -0.1006
   30CAT     A1  114   1.397   1.425   2.052 -0.5233  0.2228  0.4171
   31CAT     A1  115   1.214   1.977   2.193 -0.0838 -0.0917  0.6221
   32CAT     A1  116   1.402   1.721   2.101 -0.2154 -0.5531  0.5456
   33CAT     A1  117   0.980   1.928   0.142 -0.2801  0.0294 -0.0678
   34CAT     A1  118   0.852   1.576   0.149 -0.5055  0.7966  0.1443
   35CAT     A1  119   1.602   1.545   1.842 -0.3014 -0.0968 -0.8674
   36CAT     A1  120   1.508   1.428   0.281  0.2379 -0.1429 -0.2263
   37CAT     A1  121   1.623   1.288   0.063  0.0427 -0.0670 -0.5554
   38CAT     A1  122   1.276   1.525   0.119 -0.8691  0.4068 -0.0893
   39CAT     A1  123   1.736   1.330   1.929 -0.0045  0.2290  0.1184
   40ANI     A1  124   1.553   1.375   1.933  0.3947  0.8581  0.5502
   41ANI     A1  125   1.416   1.610   0.233  0.2033  0.4306 -0.5950
   42ANI     A1  126   1.900   1.749   2.024  0.0627  0.2079 -0.5783
   43ANI     A1  127   1.574   1.692   1.963  0.3166  0.0539 -0.0520
   44ANI     A1  128   1.958   1.578   0.089 -0.3166 -0.3492 -0.0000
   45ANI     A1  129   1.636   1.705   0.048  0.1795  0.5865 -0.3040
   46ANI     A1  130   1.054   1.838   2.148  0.5501  0.3002 -0.0291
   47ANI     A1  131   2.125   1.289   2.157 -0.9803  0.0270  0.6301
   48ANI     A1  132   0.030   1.703   2.178  1.1525  0.0846  0.3395
   49ANI     A1  133   0.643   1.528   0.117 -0.1354 -0.4074  0.2947
   50ANI     A1  134   1.771   1.286   2.130 -0.1336 -0.2309  0.2304
   51ANI     A1  135   0.421   1.688   0.056 -0.0605  0.2685  0.0807
   52ANI     A1  136   0.267   1.637   2.015 -0.0505  0.0758 -0.0931
   53ANI     A1  137   0.517   1.497   2.025 -0.6216 -1.0689  0.6282
   54ANI     A1  138   0.183   1.367   1.934  0.8042 -0.0652  0.2328
   55ANI     A1  139   2.115   1.534   1.938  0.4425 -0.2277  0.0187
   56ANI     A1  140   0.264   1.411   0.063  0.2933  0.0206 -0.5648
   57ANI     A1  141   0.667   1.743   2.101 -0.0105 -0.0296 -0.0201
   58ANI     A1  142   0.884   1.600   2.137  0.1682  0.0787  0.5049
   59ANI     A1  143   1.278   1.566   2.106 -0.3363  0.5485 -0.4988
   60ANI     A1  144   1.080   1.572   0.140 -1.4672 -0.8439  0.1623
   61ANI     A1  145   1.423   1.345   0.104 -0.1978  0.1667  0.9579
   62ANI     A1  146   1.797   1.490   1.825 -0.1724 -0.3504  0.1756
   63ANI     A1  147   1.384   1.877   0.033  0.4029 -0.2173  0.6003
   64ANI     A1  148   1.100   2.085   0.100  0.0970 -0.7304 -0.0784
   65ANI     A1  149   1.690   1.416   0.202  0.4338 -0.5377 -0.6002
   66ANI     A1  150   0.796   1.815   0.147 -0.2842  0.0661  0.1549
   67POL     A1  151   0.889   0.559   0.941  0.4458  0.4936 -0.8529
   67POL     A2  152   0.928   0.510   1.082 -0.5549  0.0596 -0.5805
   67POL     A3  153   0.920   0.601   1.213  0.4890 -0.6330 -0.3946
   67POL     A4  154   1.048   0.634   1.274  0.2971 -0.6622 -0.5552
   67POL     A5  155   1.131   0.639   1.139 -0.2453 -1.3847 -2.0155
   67POL     A6  156   1.214   0.508   1.129 -0.3459  0.3097 -0.6010
   67POL     A7  157   1.185   0.408   1.240 -0.6813 -1.0845 -0.4408
   67POL     A8  158   1.119   0.275   1.194  0.0872  0.1221  0.6438
   68POL     A1  159   1.388   2.080   1.771 -0.8876 -0.0881  0.0994
   68POL     A2  160   1.409   2.193   1.668  1.2151 -0.3552 -0.7429
   68POL     A3  161   1.522   2.281   1.694 -0.6894 -0.1446 -0.1492
   68POL     A4  162   1.595   2.167   1.768  0.7647 -1.2163  0.9389
   68POL     A5  163   1.617   2.052   1.675  0.1477  0.3350 -0.5519
   68POL     A6  164   1.745   1.983   1.637 -0.0703  0.8185  0.0239
   68POL     A7  165   1.771   1.864   1.736 -1.2660  0.0684 -0.0526
   68POL     A8  166   1.680   1.750   1.725  0.0517  0.5981 -1.7539
   69POL     A1  167   0.108   0.433   0.480  1.2886  0.3260 -0.1908
   69POL     A2  168   0.003   0.340   0.539 -1.4111  0.1226  0.7001
   69POL     A3  169   0.056   0.210   0.463 -0.0025 -0.2432 -0.6300
   69POL     A4  170   0.176   0.221   0.366  0.3615 -0.2072 -1.1098
   69POL     A5  171   0.116   0.232   0.229 -0.8117 -0.8867  0.4446
   69POL     A6  172  -0.017   0.278   0.226  1.1603  0.2996 -0.1380
   69POL     A7  173  -0.054   0.333   0.090  0.2361  0.2275 -0.4413
   69POL     A8  174  -0.116   0.250  -0.012 -0.1838 -1.0705 -0.6162
   70POL     A1  175   0.743   1.358   1.309 -0.3674 -0.0356 -0.1910
   70POL     A2  176   0.816   1.233   1.352 -0.2057 -0.6366  0.7644
   70POL     A3  177   0.844   1.247   1.496 -0.3097 -0.0434 -0.0627
   70POL     A4  178   0.848   1.394   1.543  0.3261  0.0499 -0.7102
   70POL     A5  179   0.724   1.465   1.612 -1.0933  0.7415  0.2880
   70POL     A6  180   0.734   1.605   1.553  0.5181 -0.7076 -0.1684
   70POL     A7  181   0.590   1.613   1.524  1.0514 -0.0251  0.9634
   70POL     A8  182   0.535   1.741   1.569 -0.4134  0.8900  0.3240
   71POL     A1  183   1.383   0.082   1.101 -0.1002  0.3481  0.1061
   71POL     A2  184   1.491   0.088   0.997  0.2851 -1.6001  0.8619
   71POL     A3  185   1.586   0.196   1.023  0.5729  0.9144 -0.9915
   71POL     A4  186   1.711   0.158   1.099 -0.1618  0.1656  0.3270
   71POL     A5  187   1.832   0.201   1.010  0.7102  0.8122  0.2003
   71POL     A6  188   1.870   0.044   0.951  0.2562 -1.0013 -0.0897
   71POL     A7  189   1.982   0.076   0.872  0.9536 -0.7364 -0.4467
   71POL     A8  190   2.047   0.208   0.907 -0.0157 -0.6857  0.9614
   72POL     A1  191   0.879   0.747   0.647 -1.2307  0.1009 -0.1224
   72POL     A2  192   1.027   0.726   0.619  0.1348 -0.8220  0.2405
   72POL     A3  193   1.075   0.702   0.486  0.8750 -0.3525  0.5803
   72POL     A4  194   0.996   0.775   0.380  0.3700  0.4947  0.2786
   72POL     A5  195   1.121   0.834   0.341 -0.3964  1.2147 -0.5097
   72POL     A6  196   1.151   0.828   0.186  0.8778  0.1894  1.1359
   72POL     A7  197   1.248   0.722   0.144  1.8804  0.1691  0.5513
   72POL     A8  198   1.319   0.627   0.229 -1.1064 -0.3882  0.3617
   73POL     A1  199   2.153   1.405   1.111  0.1419  0.3669  0.1845
   73POL     A2  200   2.298   1.473   1.140 -0.6366 -0.0564 -0.4974
   73POL     A3  201   2.338   1.465   1.284 -0.5509  0.7197  0.0238
   73POL     A4  202   2.230   1.405   1.362 -0.7155  0.3938  0.9459
   73POL     A5  203   2.209   1.499   1.482  0.3627 -0.5627 -0.2199
   73POL     A6  204   2.127   1.613   1.470 -0.5640  0.7580 -0.4286
   73POL     A7  205   1.987   1.582   1.438  0.1653 -0.3395  0.6323
   73POL     A8  206   1.925   1.455   1.517  0.5995 -0.7567 -0.8716
   74POL     A1  207   1.596   0.770   1.538 -0.0123 -0.2616 -0.2454
   74POL     A2  208   1.509   0.764   1.647  0.5744  0.0429  0.3256
   74POL     A3  209   1.566   0.866   1.738 -0.6953 -1.7889  0.9523
   74POL     A4  210   1.531   0.988   1.653 -0.2139 -0.5328 -0.5516
   74POL     A5  211   1.403   1.054   1.671  0.2160  0.3526 -0.0601
   74POL     A6  212   1.396   1.203   1.660  1.2342 -0.1757  0.0809
   74POL     A7  213   1.539   1.243   1.623 -0.4340  0.4640  0.4724
   74POL     A8  214   1.632   1.213   1.728  0.3463 -0.7632  0.0746
   75POL     A1  215   1.397   0.015   0.500  0.4377  1.5116 -0.6315
   75POL     A2  216   1.380   0.016   0.646 -0.1572 -0.1001  0.2281
   75POL     A3  217   1.339  -0.103   0.728 -0.4701  0.5358 -0.6069
   75POL     A4  218   1.389  -0.214   0.638 -0.9049  0.8950  0.0165
   75POL     A5  219   1.492  -0.316   0.691  0.3075  0.7000  0.2577
   75POL     A6  220   1.519  -0.328   0.833  0.4863 -0.5160 -0.2381
   75POL     A7  221   1.626  -0.237   0.870  0.7856 -0.5081  0.2078
   75POL     A8  222   1.578  -0.127   0.952  0.6898  0.5236 -0.9359
   76POL     A1  223   2.171   1.009   0.266 -0.3890  0.1252 -0.5431
   76POL     A2  224   2.158   0.854   0.275 -0.8082 -1.7917  0.4151
   76POL     A3  225   2.168   0.798   0.148 -0.1409  0.2543  0.5372
   76POL     A4  226   2.079   0.889   0.053 -1.6133 -0.0635  0.2923
   76POL     A5  227   1.934   0.863   0.043 -1.7998  1.3321  0.3624
   76POL     A6  228   1.886   0.836   0.176 -0.2294 -0.1475  0.6553
   76POL     A7  229   1.823   0.959   0.231  0.1060 -0.1973 -0.2589
   76POL     A8  230   1.690   0.974   0.165  0.7671  0.1313 -0.6746
   77POL     A1  231   0.980   0.297   2.183  1.3594  1.0844  0.8794
   77POL     A2  232   1.086   0.257   2.269 -0.3563 -0.0503  0.4600
   77POL     A3  233   1.174   0.173   2.177 -0.6558 -0.7527  0.9435
   77POL     A4  234   1.166   0.167   2.030 -0.0318  0.2870 -0.6075
   77POL     A5  235   1.274   0.171   1.937  0.0795 -0.3856 -0.0712
   77POL     A6  236   1.238   0.038   1.859 -0.3324  0.0806 -0.5048
   77POL     A7  237   1.087   0.043   1.868  1.6047  0.3593 -0.0120
   77POL     A8  238   1.023   0.144   1.790 -1.8046 -1.3088  1.0096
   78POL     A1  239   0.366   0.980   1.471  0.4738  0.9955 -1.2506
   78POL     A2  240   0.343   0.898   1.600  0.6411  0.5632  0.8955
   78POL     A3  241   0.196   0.854   1.615  1.3697  0.6561  1.2091
   78POL     A4  242   0.090   0.914   1.522  1.2227  0.0978  0.8259
   78POL     A5  243   0.079   1.062   1.556 -1.0126  0.3830  0.6418
   78POL     A6  244   0.065   1.080   1.708  0.0106 -0.3273  1.0264
   78POL     A7  245  -0.084   1.114   1.718 -0.6801  0.9196 -0.2060
   78POL     A8  246  -0.181   1.103   1.609 -0.3312  1.4153  0.3414
   79POL     A1  247   1.755   0.687   2.126  0.4656  0.5654 -0.4982
   79POL     A2  248   1.713   0.596   2.009 -0.0068 -0.4555 -0.6559
   79POL     A3  249   1.845   0.563   1.937 -0.2653  0.4897 -0.0702
   79POL     A4  250   1.967   0.557   2.021 -0.1952  0.0468  0.0785
   79POL     A5  251   2.083   0.556   1.919 -0.3829 -0.1413  1.0098
   79POL     A6  252   2.069   0.671   1.832 -0.9417 -0.7993 -0.3550
   79POL     A7  253   2.181   0.753   1.847  0.0392 -0.8311  0.4666
   79POL     A8  254   2.165   0.862   1.949  0.9849  0.0229  0.3262
   80POL     A1  255   0.929   1.258   0.813  0.4439 -0.9446  0.2190
   80POL     A2  256   0.808   1.300   0.733 -1.4372  0.1539 -0.6827
   80POL     A3  257   0.692   1.377   0.800  0.0528 -0.4072 -0.0949
   80POL     A4  258   0.660   1.291   0.911  0.7137 -0.2252 -0.1329
   80POL     A5  259   0.538   1.214   0.877  0.5997  0.2876 -0.2182
   80POL     A6  260   0.549   1.145   0.742  0.1154 -0.2511 -0.3117
   80POL     A7  261   0.422   1.062   0.732 -0.6448 -0.2225 -0.3996
   80POL     A8  262   0.434   0.946   0.831  0.5785  0.5771 -0.5205
   81POL     A1  263   1.449   1.684   1.242 -0.5353  0.8641  0.4476
   81POL     A2  264   1.400   1.618   1.367 -0.3665  1.0761  0.1903
   81POL     A3  265   1.477   1.634   1.481 -0.2897 -0.6908 -0.0869
   81POL     A4  266   1.430   1.758   1.549 -0.3926  0.2849 -0.4058
   81POL     A5  267   1.371   1.683   1.671 -0.2005 -0.2132  0.0140
   81POL     A6  268   1.232   1.624   1.668  0.9565 -0.1154  0.5965
   81POL     A7  269   1.146   1.693   1.768  0.0394  0.4990  0.6234
   81POL     A8  270   1.239   1.761   1.870 -0.1571  0.7432  0.2969
   2.20000   2.20000   2.20000
