dense_salt_polymer
  270
    1POL     A1    1   0.117   0.205   0.973  0.5437 -0.9597  0.2937
    1POL     A2    2   0.223   0.110   0.965  0.3567  0.4316 -1.9536
    1POL     A3    3   0.287   0.128   1.094  0.0059 -0.0355  0.3234
    1POL     A4    4   0.395   0.214   1.129  0.0961  0.5309 -0.6200
    1POL     A5    5   0.401   0.333   1.044 -0.3460  0.6560 -0.9066
    1POL     A6    6   0.488   0.442   1.087  0.3790 -1.5659 -0.0490
    1POL     A7    7   0.483   0.427   1.240  0.3492  0.5198 -0.8492
    1POL     A8    8   0.612   0.405   1.338 -0.6009  0.9807  0.6718
    2POL     A1    9   0.389   0.090   2.098  1.1016  0.2835  0.2816
    2POL     A2   10   0.346  -0.054   2.057 -0.1695 -0.6838 -1.0283
    2POL     A3   11   0.214  -0.089   1.993  1.0163 -0.3109  1.0196
    2POL     A4   12   0.118   0.034   1.988 -0.7762  0.3806  1.2194
    2POL     A5   13   0.161   0.068   1.850 -0.0946 -0.4968  0.9171
    2POL     A6   14   0.141  -0.042   1.756  0.3921 -0.8888  0.2599
    2POL     A7   15   0.002  -0.037   1.701 -0.7064  0.2517 -1.0339
    2POL     A8   16  -0.063  -0.162   1.737 -0.4309  1.9220 -0.0967
    3POL     A1   17   1.706   2.113   1.348  0.3244 -0.9129 -0.2727
    3POL     A2   18   1.813   2.200   1.404 -1.4087 -0.1307 -0.5577
    3POL     A3   19   1.899   2.241   1.291  0.2187 -0.6851 -0.6323
    3POL     A4   20   1.907   2.148   1.177 -0.2231  0.4701  0.3810
    3POL     A5   21   1.828   2.196   1.065 -0.6229 -0.3295  0.3326
    3POL     A6   22   1.909   2.266   0.955 -0.6781  0.0342  0.1512
    3POL     A7   23   1.865   2.419   0.921 -0.7830 -1.3839 -0.5347
    3POL     A8   24   1.808   2.488   1.047 -0.5907 -0.7711 -0.4920
    4POL     A1   25   1.113   0.202   0.608  0.8566 -0.4952 -0.6760
    4POL     A2   26   1.073   0.267   0.732  0.3192  0.1891 -0.8469
    4POL     A3   27   1.199   0.257   0.810  0.7106  0.9143 -1.3832
    4POL     A4   28   1.209   0.161   0.924 -0.6221  1.4319 -0.4168
    4POL     A5   29   1.211   0.261   1.042  0.4842  0.3050 -0.5399
    4POL     A6   30   1.134   0.383   0.995 -0.1125 -0.3064  0.6707
    4POL     A7   31   1.250   0.478   0.990  0.7081  0.1879 -0.5242
    4POL     A8   32   1.333   0.484   1.114  0.9551  0.8510  0.3034
    5POL     A1   33   1.373   1.326   0.596  0.7104  0.6838  0.2010
    5POL     A2   34   1.297   1.383   0.485  1.3741 -0.0807  0.2328
    5POL     A3   35   1.334   1.363   0.348 -0.5211 -1.0150  0.5946
    5POL     A4   36   1.260   1.255   0.267 -0.0740 -0.3164  0.4872
    5POL     A5   37   1.194   1.179   0.374 -0.2487 -0.3207 -1.3154
    5POL     A6   38   1.045   1.219   0.375  0.3296  0.0336 -0.0633
    5POL     A7   39   1.003   1.285   0.250 -0.0685 -0.3768  1.6699
    5POL     A8   40   1.080   1.280   0.120 -0.5895 -0.4074 -0.4384
    6POL     A1   41   1.684   0.341   0.189  1.1848 -0.7402  0.1964
    6POL     A2   42   1.758   0.359   0.307  0.8952  0.0915  0.3473
    6POL     A3   43   1.791   0.215   0.354 -0.8066 -1.2273 -0.3508
    6POL     A4   44   1.721   0.103   0.287  1.1683 -0.6177  0.9313
    6POL     A5   45   1.611   0.036   0.362 -0.7684  0.1243 -0.1635
    6POL     A6   46   1.534   0.099   0.462 -0.1881 -0.6602 -0.0375
    6POL     A7   47   1.435   0.204   0.470  1.1597  0.6125 -0.5225
    6POL     A8   48   1.323   0.190   0.378  0.2371 -0.2474  0.6233
    7POL     A1   49   0.208   1.793   1.706  0.3220 -0.4543  0.4053
    7POL     A2   50   0.297   1.899   1.650 -0.0803  0.2109  0.9606
    7POL     A3   51   0.244   1.988   1.534 -0.4971  0.4650  0.2787
    7POL     A4   52   0.146   1.917   1.436 -0.2425  1.0144 -0.5769
    7POL     A5   53   0.205   1.894   1.302 -0.4555 -0.6321  0.0789
    7POL     A6   54   0.190   2.026   1.223 -0.5485 -0.0291 -0.3176
    7POL     A7   55   0.195   1.985   1.079 -0.1771  0.2875  0.4132
    7POL     A8   56   0.285   1.870   1.071 -0.5435 -0.0425  0.0254
    8POL     A1   57   0.005   1.776   0.762  0.3661  0.5319 -0.3712
    8POL     A2   58   0.004   1.730   0.622  0.3104  0.2049  0.4237
    8POL     A3   59   0.130   1.638   0.604  0.9793 -0.1199  0.5533
    8POL     A4   60   0.259   1.718   0.629 -0.3110 -1.0525 -0.0222
    8POL     A5   61   0.355   1.737   0.507 -0.6066 -0.2211 -1.2662
    8POL     A6   62   0.274   1.850   0.442  0.2148 -0.8693 -0.4961
    8POL     A7   63   0.302   1.981   0.513 -0.3168  0.2096  0.1918
    8POL     A8   64   0.412   2.077   0.469  0.8280  0.8050 -0.2533
    9POL     A1   65   1.032   0.505   1.878 -0.2213  0.0395  1.7961
    9POL     A2   66   1.105   0.416   1.797 -0.0361 -0.6429 -0.5921
    9POL     A3   67   1.129   0.505   1.678  0.9157  0.7159 -0.7456
    9POL     A4   68   1.204   0.619   1.748  0.3133 -0.3523  0.9987
    9POL     A5   69   1.329   0.558   1.790 -0.6627 -0.6997  0.9413
    9POL     A6   70   1.324   0.492   1.920 -0.7394 -0.2848 -0.3160
    9POL     A7   71   1.379   0.579   2.030 -0.8584  0.6475  0.4514
    9POL     A8   72   1.493   0.659   1.996  0.8158 -1.3680  1.4800
   10POL     A1   73   0.601   1.977   1.990 -0.1149  0.2265  2.1252
   10POL     A2   74   0.661   2.009   2.117 -0.4311  0.5710  0.2442
   10POL     A3   75   0.810   1.990   2.088  0.7792  0.4929  0.2178
   10POL     A4   76   0.859   2.076   1.985 -0.3046  0.9486 -0.2322
   10POL     A5   77   0.824   2.217   1.978  0.2733 -0.1718  0.3491
   10POL     A6   78   0.942   2.302   2.051 -0.6286  0.8471 -0.7374
   10POL     A7   79   0.932   2.348   2.186 -0.4255  0.3292  1.1197
   10POL     A8   80   0.793   2.379   2.238  0.2443  0.6599  1.7632
   11POL     A1   81   1.726   0.712   1.776 -0.1414  0.1974 -0.3730
   11POL     A2   82   1.676   0.753   1.640  0.7001 -0.4019  1.0891
   11POL     A3   83   1.756   0.674   1.536  0.3244 -0.6372  0.0583
   11POL     A4   84   1.890   0.686   1.561  0.6393  0.4771  0.2187
   11POL     A5   85   1.942   0.767   1.450  0.3981 -0.5429 -0.7486
   11POL     A6   86   2.041   0.681   1.374 -0.4343 -0.1497 -0.0501
   11POL     A7   87   2.174   0.651   1.448 -0.4608  0.8738  0.6319
   11POL     A8   88   2.182   0.645   1.599  0.3069  0.4091  0.5616
   12POL     A1   89   1.937   0.385   1.516  0.0560 -0.0934  0.7320
   12POL     A2   90   1.969   0.354   1.660 -0.9968 -0.7077  0.2931
   12POL     A3   91   1.884   0.423   1.756 -0.7172 -0.1417 -0.4705
   12POL     A4   92   1.741   0.372   1.764 -1.4722 -0.3774 -0.3768
   12POL     A5   93   1.698   0.297   1.886  0.5272  0.0199 -0.0832
   12POL     A6   94   1.815   0.245   1.957  0.0613 -0.7507  0.1931
   12POL     A7   95   1.884   0.115   1.924 -0.6844 -0.0941 -1.3348
   12POL     A8   96   1.812   0.050   1.821  0.8283 -0.4863 -0.4717
   13CAT     A1   97   1.407   1.486   1.777  0.0556 -0.3194 -0.2514
   14CAT     A1   98   1.854   1.694   1.617  1.1785 -0.1580  0.0580
   15CAT     A1   99   1.883   1.269   2.164 -0.3345  0.6177 -0.4265
   16CAT     A1  100   1.725   1.823   2.152  0.0310  0.4260  0.0470
   17CAT     A1  101   1.935   1.573   2.153 -0.1086  0.2021  1.5292
   18CAT     A1  102   2.073   1.495   1.666 -0.7081 -0.2492  0.2864
   19CAT     A1  103   1.987   1.396   1.929 -0.6060 -0.2149  0.0432
   20CAT     A1  104   1.788   1.869   1.846  0.1568 -0.4186 -0.8235
   21CAT     A1  105   0.015   1.236   1.918 -0.1837  0.2787 -0.4155
   22CAT     A1  106   0.074   1.589   1.928 -0.3387 -0.1258 -0.1287
   23CAT     A1  107   0.461   1.630   1.958  0.8106  0.6759 -0.7474
   24CAT     A1  108   0.320   1.415   2.023 -0.2084  0.0401 -0.3257
   25CAT     A1  109   2.196   1.370   2.154  1.0691 -0.2767  0.1802
   26CAT     A1  110   1.986   1.702   1.896  0.0225  0.0489 -0.6413
   27CAT     A1  111   2.124   1.792   1.634  0.9753 -0.0489 -0.1662
   28CAT     A1  112   0.670   1.422   1.857  0.2973 -0.0095 -0.2730
   29CAT     A1  113   0.822   1.653   1.802 -0.3879 -0.4007  0.2641
   30CAT     A1  114   1.468   1.648   2.095 -0.0802 -0.1819  0.9392
   31CAT     A1  115   1.032   1.489   1.781 -1.2150  0.9322 -0.1167
   32CAT     A1  116   1.501   1.739   1.813  0.4388  1.2024 -0.4200
   33CAT     A1  117   1.221   1.709   1.835  0.9868 -0.5736 -1.0778
   34CAT     A1  118   1.472   1.949   2.076 -0.1128  0.5377 -0.0383
   35CAT     A1  119   1.637   1.404   2.087  0.3204 -0.2968 -0.2547
   36CAT     A1  120   1.626   1.641   0.164  0.4646  0.0436 -1.2826
   37CAT     A1  121   1.589   1.354   0.167  0.6341 -0.2547 -0.2826
   38CAT     A1  122   1.764   1.581   1.883  0.1255  0.0571  0.6345
   39CAT     A1  123   1.864   1.483   0.240  0.7770  0.1125 -0.6460
   40ANI     A1  124   1.832   1.649   0.128 -0.7450 -0.4486  0.1624
   41ANI     A1  125   1.910   1.521   1.778  0.2685 -0.2935  0.5469
   42ANI     A1  126   2.040   1.239   2.050  0.8341 -0.3198 -0.2614
   43ANI     A1  127   2.031   1.677   1.533 -0.9929 -0.2588  0.3350
   44ANI     A1  128   1.704   1.721   1.758 -0.0018  0.3862  0.4056
   45ANI     A1  129   1.549   1.794   0.019  0.0287  0.0294  0.4842
   46ANI     A1  130   1.563   1.521   1.920 -0.1471  0.2435  0.1437
   47ANI     A1  131   2.168   1.363   1.782 -0.3660 -0.7626 -0.3853
   48ANI     A1  132   1.949   1.841   1.758 -0.8916  0.4115 -0.8200
   49ANI     A1  133   0.243   1.610   2.014 -0.2069 -0.4255 -0.8844
   50ANI     A1  134   1.635   1.949   1.963  0.1245 -0.6424 -0.1693
   51ANI     A1  135   1.696   1.232   0.033  0.3389  1.0025  0.0571
   52ANI     A1  136   2.098   1.530   2.036 -0.3364  0.3791 -0.0418
   53ANI     A1  137   1.977   1.408   0.078 -0.8270  0.2609  0.4417
   54ANI     A1  138   1.838   1.728   2.030 -0.0963  0.3786  0.1653
   55ANI     A1  139   2.189   1.703   1.817 -0.1468 -0.8356 -0.1703
   56ANI     A1  140   0.157   1.311   2.053 -0.3885  0.2784  0.6702
   57ANI     A1  141   0.494   1.425   1.935  0.4310 -0.4994  0.2142
   58ANI     A1  142   0.838   1.430   1.800  0.0377  0.4204  0.5368
   59ANI     A1  143   1.369   1.770   1.965 -0.1795 -0.0375  0.2179
   60ANI     A1  144   1.514   1.490   0.033 -0.9994  0.0624  0.1907
   61ANI     A1  145   1.228   1.511   1.871 -0.2063 -0.3778  0.1284
   62ANI     A1  146   1.822   1.430   2.038  0.5421  0.5689  0.2821
   63ANI     A1  147   1.004   1.691   1.815 -0.7318  0.0619  0.0054
   64ANI     A1  148   1.361   1.659   1.678 -0.0667  0.0115  0.4033
   65ANI     A1  149   1.677   1.466   0.298 -0.7152  0.3280 -0.7534
   66ANI     A1  150   0.631   1.654   1.867 -0.1776  0.2270 -0.1165
   67POL     A1  151   1.165   2.016   0.041  0.5031 -0.2001 -0.1459
   67POL     A2  152   1.081   2.124   0.103 -1.5595  0.9003  0.6160
   67POL     A3  153   1.129   2.132   0.246 -0.9505 -0.5081 -0.0490
   67POL     A4  154   1.272   2.082   0.262  0.7485  0.3331  0.4371
   67POL     A5  155   1.373   2.142   0.165  0.0908  0.5358 -0.2846
   67POL     A6  156   1.355   2.172   0.032 -0.1934 -0.7310 -0.3419
   67POL     A7  157   1.319   2.313   0.025 -0.3917 -1.6362  1.8626
   67POL     A8  158   1.189   2.334  -0.037  0.1612  0.8957 -1.1096
   68POL     A1  159   0.143   0.397   0.338  0.0402 -0.9705  0.7964
   68POL     A2  160   0.180   0.453   0.211  0.2180  0.1047  0.3753
   68POL     A3  161   0.258   0.576   0.224  0.6592 -0.5988  0.0952
   68POL     A4  162   0.201   0.664   0.126  0.1679  0.7183 -0.2771
   68POL     A5  163   0.115   0.782   0.173 -0.2161 -0.9843  1.2318
   68POL     A6  164   0.195   0.809   0.291  0.1501 -0.7263  0.4708
   68POL     A7  165   0.317   0.859   0.224  0.2501 -0.9585 -0.3287
   68POL     A8  166   0.405   0.772   0.288 -0.0325  0.2023  0.8374
   69POL     A1  167   0.803   0.393   1.051 -1.6370  2.2535  0.1341
   69POL     A2  168   0.848   0.301   1.154 -0.3918 -0.0986 -0.0208
   69POL     A3  169   0.907   0.164   1.108  0.1817 -0.1457  1.0976
   69POL     A4  170   0.903   0.108   0.966  0.2434 -0.2040 -0.2761
   69POL     A5  171   0.862   0.162   0.847 -1.3958 -0.3726  1.1738
   69POL     A6  172   0.714   0.182   0.842 -0.1024 -0.7465 -0.2681
   69POL     A7  173   0.653   0.049   0.819 -0.4365  1.0776  0.5277
   69POL     A8  174   0.761  -0.040   0.773  0.0650 -0.3123 -0.0272
   70POL     A1  175   0.729   1.079   2.109  0.6069 -0.1697  0.4563
   70POL     A2  176   0.624   0.973   2.137  0.8264 -0.7429 -0.9174
   70POL     A3  177   0.590   0.920   2.006 -0.0793  1.0328 -1.1687
   70POL     A4  178   0.549   1.022   1.915  0.3817 -0.3073  0.3012
   70POL     A5  179   0.410   1.067   1.950  0.2677  0.9964 -0.9939
   70POL     A6  180   0.325   1.026   1.839 -0.5362  0.2408 -0.8622
   70POL     A7  181   0.403   0.970   1.719 -1.2642  0.1468 -0.4374
   70POL     A8  182   0.337   1.041   1.597 -0.0864 -0.6423 -0.0702
   71POL     A1  183   1.512   1.348   0.890  0.8165  0.9317  0.6166
   71POL     A2  184   1.411   1.381   0.994  0.1498  0.5871 -0.0698
   71POL     A3  185   1.422   1.525   1.038  0.1798  0.1566  0.4027
   71POL     A4  186   1.569   1.526   1.102  0.1853 -0.9720 -0.2589
   71POL     A5  187   1.556   1.452   1.244 -0.4166 -0.4411  0.2309
   71POL     A6  188   1.523   1.548   1.349 -0.1270 -0.2800 -0.7179
   71POL     A7  189   1.634   1.654   1.373  0.8057  0.5848  1.4346
   71POL     A8  190   1.738   1.549   1.382  0.7383  0.9351 -0.3398
   72POL     A1  191   1.584   1.921   1.030 -1.3858 -0.6943 -0.9861
   72POL     A2  192   1.634   1.802   0.957  0.5012  1.7129 -0.4985
   72POL     A3  193   1.758   1.802   0.869 -0.4354  0.8805 -0.5468
   72POL     A4  194   1.855   1.908   0.913  0.3507  0.3441 -1.5418
   72POL     A5  195   1.975   1.855   0.972 -0.3642  0.1775  0.3681
   72POL     A6  196   1.949   1.705   1.010 -0.5352 -0.1244 -1.2901
   72POL     A7  197   2.003   1.632   0.894  0.6641 -0.6956 -0.3075
   72POL     A8  198   2.133   1.550   0.898 -0.7693 -1.3269 -1.3366
   73POL     A1  199   0.961   1.769   1.398 -0.2217  1.4239 -0.2104
   73POL     A2  200   0.924   1.815   1.274  1.2389  0.9172  0.9753
   73POL     A3  201   0.776   1.789   1.237 -1.1577  0.0564  0.5876
   73POL     A4  202   0.686   1.697   1.325  0.7455  0.8696  0.3206
   73POL     A5  203   0.606   1.597   1.265 -0.7809 -0.0365 -0.6533
   73POL     A6  204   0.672   1.597   1.132  0.1924  0.0520 -0.1828
   73POL     A7  205   0.780   1.493   1.154  0.7773 -0.0355  0.0688
   73POL     A8  206   0.757   1.408   1.272 -0.2155  0.1494 -0.7036
   74POL     A1  207   0.742   0.231   1.580  0.5183  0.1470 -0.0533
   74POL     A2  208   0.723   0.079   1.596  0.7572 -0.5853 -0.2155
   74POL     A3  209   0.764  -0.028   1.499  0.8999 -1.2061 -0.0633
   74POL     A4  210   0.838  -0.124   1.589 -0.3774 -1.1351  0.0456
   74POL     A5  211   0.982  -0.089   1.588  0.2486 -0.4301  0.8581
   74POL     A6  212   1.058  -0.157   1.485 -0.7533  1.8198  0.5132
   74POL     A7  213   1.171  -0.096   1.411  0.7999 -0.0236 -1.0968
   74POL     A8  214   1.302  -0.079   1.484 -0.0718 -0.0736  0.0201
   75POL     A1  215   0.748   0.495   0.302 -0.3080 -1.2614  0.1736
   75POL     A2  216   0.722   0.395   0.187  0.3933  0.2988 -0.4437
   75POL     A3  217   0.622   0.408   0.079  0.1221  0.2362 -0.0041
   75POL     A4  218   0.528   0.518   0.108  0.4054  0.5728  0.4341
   75POL     A5  219   0.583   0.665   0.117  0.7645 -0.3017  0.0895
   75POL     A6  220   0.727   0.687   0.070 -0.0045 -0.3919 -0.5213
   75POL     A7  221   0.777   0.824   0.118  0.1110 -0.7566  0.8776
   75POL     A8  222   0.758   0.866   0.259 -0.2558  0.3126  0.3116
   76POL     A1  223   0.942   1.654   0.001  0.6350 -0.0504 -0.3769
   76POL     A2  224   0.907   1.766   0.095  0.8576 -0.9922 -0.4772
   76POL     A3  225   1.011   1.823   0.181  0.2289 -0.1370 -0.9577
   76POL     A4  226   1.108   1.737   0.237  1.8322  0.3425  0.6039
   76POL     A5  227   1.047   1.627   0.305  0.6208 -0.5505 -1.1885
   76POL     A6  228   0.904   1.673   0.366 -0.3353 -0.7635 -0.0970
   76POL     A7  229   0.783   1.595   0.358 -0.1225 -0.4086 -0.3069
   76POL     A8  230   0.777   1.558   0.213  0.4060 -0.2985 -0.0351
   77POL     A1  231   1.348   0.740   1.560  0.0615 -0.2567 -0.9165
   77POL     A2  232   1.329   0.877   1.615 -0.5697 -0.5573 -0.7353
   77POL     A3  233   1.466   0.938   1.599  1.0991 -0.3818 -0.0465
   77POL     A4  234   1.449   1.068   1.633  0.1359  0.5141  0.0418
   77POL     A5  235   1.500   1.150   1.517  0.3018  0.3654  0.1127
   77POL     A6  236   1.379   1.165   1.419 -1.1118  0.2307 -0.1013
   77POL     A7  237   1.394   1.080   1.298  0.3451 -0.3345 -0.7132
   77POL     A8  238   1.537   1.049   1.294  0.1712  0.0863  0.0017
   78POL     A1  239   1.857   0.789   1.119 -0.5086  0.3758  1.6556
   78POL     A2  240   1.785   0.677   1.040  1.3986  0.4892  0.4030
   78POL     A3  241   1.702   0.729   0.934  0.0592 -0.1319  0.7385
   78POL     A4  242   1.735   0.671   0.798  0.4117  0.8197 -0.1357
   78POL     A5  243   1.637   0.576   0.735 -0.3119  0.9851 -1.0144
   78POL     A6  244   1.600   0.495   0.862 -1.0417 -0.9859 -0.2923
   78POL     A7  245   1.452   0.533   0.877 -1.0338 -0.3655 -0.0810
   78POL     A8  246   1.405   0.676   0.894  0.1393  0.1670 -0.2135
   79POL     A1  247   1.112   1.922   0.607  0.7455 -0.0487 -0.2497
   79POL     A2  248   1.221   1.824   0.632 -0.6704 -1.1015  0.4919
   79POL     A3  249   1.335   1.897   0.695 -0.1455  0.3759  1.3909
   79POL     A4  250   1.281   1.978   0.800 -0.3907 -0.6493  0.1122
   79POL     A5  251   1.275   1.916   0.933 -0.7568  0.6314  0.4467
   79POL     A6  252   1.193   1.787   0.905  1.2234  0.3641  0.5717
   79POL     A7  253   1.112   1.780   1.035 -1.8725  0.5269 -0.7516
   79POL     A8  254   1.215   1.730   1.123 -0.1074  0.3576 -0.0678
   80POL     A1  255   0.574   1.383   0.629  0.7406 -0.4013  0.9063
   80POL     A2  256   0.676   1.339   0.732  0.5606  0.1858 -0.6316
   80POL     A3  257   0.743   1.453   0.819  1.4832  0.9671 -0.1354
   80POL     A4  258   0.876   1.472   0.767  0.0868  0.3311 -0.1898
   80POL     A5  259   0.931   1.363   0.700 -0.7300  0.4748  0.1106
   80POL     A6  260   0.997   1.410   0.572 -0.1152  0.5218  0.7512
   80POL     A7  261   1.118   1.507   0.591  1.2776 -0.3718 -0.0877
   80POL     A8  262   1.031   1.606   0.666 -0.0995  0.5119  0.6094
   81POL     A1  263   0.039   1.170   0.172  0.1474 -0.8501  0.1482
   81POL     A2  264   0.062   1.126   0.313 -0.0496 -0.4242  0.5780
   81POL     A3  265   0.059   1.237   0.419  0.4741  0.6787 -0.2617
   81POL     A4  266   0.202   1.259   0.457  0.7534 -0.2807 -0.4770
   81POL     A5  267   0.278   1.392   0.452 -0.5419 -0.5691  0.0546
   81POL     A6  268   0.191   1.480   0.375  0.0942 -0.6209 -0.2527
   81POL     A7  269   0.201   1.518   0.227  0.0116 -0.3559  0.5004
   81POL     A8  270   0.136   1.392   0.174  0.1900  1.2152  0.2974
   2.20000   2.20000   2.20000
