tp1_5c_dense_nonlisted
    4
    1SYS     A1    1   2.491   0.789   1.290  0.4215 -3.6533 -2.2734
    1SYS     A2    2   0.072   0.612   1.275 -0.7004  2.0538  2.9295
    1SYS     A3    3   2.286   1.264   0.647  0.4864 -0.8704 -2.3545
    1SYS     A4    4   2.421   1.334   0.787 -0.2075  2.4699  1.6985
   2.50000   2.50000   2.50000
