dense_salt_polymer
  270
    1POL     A1    1   1.479   1.078   2.147 -0.0833 -0.1639 -0.6447
    1POL     A2    2   1.547   0.945   2.163  0.2167  0.5152  0.4650
    1POL     A3    3   1.687   0.975   2.142 -0.4646 -0.4892 -0.9925
    1POL     A4    4   1.703   1.057   2.013  0.5288  0.2223 -0.3467
    1POL     A5    5   1.737   1.188   2.076  0.7451  0.0330 -0.1070
    1POL     A6    6   1.859   1.192   2.158 -0.3420 -0.7036  0.1311
    1POL     A7    7   1.962   1.278   2.090 -0.0946  0.3599 -0.6145
    1POL     A8    8   1.987   1.391   2.175 -0.2464  0.4018  0.7666
    2POL     A1    9   0.209   0.702   0.252 -0.0931 -1.3971  0.0237
    2POL     A2   10   0.188   0.826   0.358 -0.1223 -0.2732 -1.1475
    2POL     A3   11   0.279   0.938   0.354  0.7010  0.6761 -1.1742
    2POL     A4   12   0.398   0.914   0.443 -0.7713  0.4360  0.2369
    2POL     A5   13   0.455   1.047   0.471  0.7819  0.5201 -1.5595
    2POL     A6   14   0.597   1.044   0.413  1.2242 -0.7786  0.4360
    2POL     A7   15   0.610   1.121   0.286  1.0426 -0.0386 -0.4098
    2POL     A8   16   0.729   1.215   0.304  0.8208  0.5155 -0.1731
    3POL     A1   17   0.916   0.947   1.366  0.7794 -0.2842 -0.1524
    3POL     A2   18   0.986   0.858   1.264 -0.6413 -0.3235  0.2773
    3POL     A3   19   1.073   0.918   1.161 -0.1994  0.5317 -0.4009
    3POL     A4   20   1.013   0.884   1.032 -0.0193 -0.6212  0.4289
    3POL     A5   21   0.927   0.752   1.047 -0.3603 -0.2138  0.9009
    3POL     A6   22   0.778   0.737   1.022  0.7160 -0.0030  0.8390
    3POL     A7   23   0.698   0.839   1.091 -0.4214 -0.1202  0.3525
    3POL     A8   24   0.779   0.951   1.127 -0.4231  0.8731  0.8473
    4POL     A1   25   0.512   0.503   2.142  0.3631 -0.0363  0.9636
    4POL     A2   26   0.495   0.657   2.128  0.3875 -0.0155 -0.3454
    4POL     A3   27   0.609   0.754   2.133 -0.3247 -0.1342  0.7076
    4POL     A4   28   0.671   0.749   1.993 -0.1393 -0.2436  0.5927
    4POL     A5   29   0.666   0.876   1.919  0.3639  0.7928 -0.8982
    4POL     A6   30   0.616   0.996   1.992 -0.3403  0.2916  0.4255
    4POL     A7   31   0.676   1.070   2.109 -1.7479 -0.5313  1.2508
    4POL     A8   32   0.742   1.014   2.223  0.1995 -0.4897 -0.2423
    5POL     A1   33   1.576   0.564   1.027 -0.7845 -0.3334  0.2859
    5POL     A2   34   1.485   0.618   0.927  0.4235 -0.8029  0.3672
    5POL     A3   35   1.389   0.724   0.968 -0.5937 -0.4556 -0.1946
    5POL     A4   36   1.241   0.687   0.994  0.2027  0.8940  0.4209
    5POL     A5   37   1.260   0.600   1.114  0.0382 -0.4978  0.1283
    5POL     A6   38   1.272   0.682   1.243 -0.9566  0.0938 -1.1753
    5POL     A7   39   1.402   0.687   1.327  0.4560 -0.8174  0.1568
    5POL     A8   40   1.508   0.685   1.233  2.2823  0.4456 -0.2242
    6POL     A1   41   0.447   1.063   0.936 -0.0086 -1.3035 -0.9193
    6POL     A2   42   0.317   1.091   0.874 -0.4198  0.1969  0.9198
    6POL     A3   43   0.282   0.965   0.816 -0.9291  0.2283  0.1038
    6POL     A4   44   0.243   0.864   0.922 -0.2199 -0.9863 -0.2709
    6POL     A5   45   0.356   0.793   0.971 -0.3160 -0.8598 -0.0475
    6POL     A6   46   0.366   0.658   0.923 -0.7639 -0.4038  0.0061
    6POL     A7   47   0.440   0.684   0.796 -0.1362  0.7759  0.8087
    6POL     A8   48   0.534   0.815   0.811  0.3859 -0.1600  0.5447
    7POL     A1   49   1.033   2.177   1.606  0.6065  1.4393 -0.2142
    7POL     A2   50   1.104   2.197   1.479  0.1137 -0.7053  0.3978
    7POL     A3   51   1.243   2.145   1.480 -0.3028 -1.2646  0.8868
    7POL     A4   52   1.254   2.050   1.594  0.4121  0.4323  1.3199
    7POL     A5   53   1.322   2.117   1.703 -0.7403  0.8382  0.6253
    7POL     A6   54   1.225   2.192   1.784 -1.4971  0.9840  0.0011
    7POL     A7   55   1.315   2.298   1.845 -0.7733  0.1264  0.0021
    7POL     A8   56   1.356   2.424   1.777  0.1519 -0.6107 -0.1309
    8POL     A1   57   0.852   0.376   1.268 -0.4932 -0.9267 -0.0592
    8POL     A2   58   0.983   0.427   1.303 -0.3464 -0.2330 -0.3752
    8POL     A3   59   1.067   0.321   1.287 -0.1826  0.1399 -0.2909
    8POL     A4   60   1.005   0.201   1.241 -1.3132 -1.0930 -0.1187
    8POL     A5   61   1.021   0.181   1.081 -0.4313  1.4298  0.4999
    8POL     A6   62   1.014   0.296   0.992 -0.0888 -0.0162 -0.9196
    8POL     A7   63   1.113   0.294   0.877  0.3554 -0.5082  0.4386
    8POL     A8   64   1.119   0.153   0.851  0.0145  0.6089 -0.4187
    9POL     A1   65   0.272   0.048   0.677 -0.1563  0.7975 -0.0250
    9POL     A2   66   0.296  -0.026   0.806  0.0856 -0.2675 -0.7845
    9POL     A3   67   0.173  -0.053   0.882 -0.9328  0.9082 -1.1779
    9POL     A4   68   0.055  -0.029   0.799 -0.6958 -0.0677 -0.8770
    9POL     A5   69  -0.002  -0.162   0.799  0.0069 -0.8900 -1.0265
    9POL     A6   70  -0.042  -0.212   0.665  1.4136  0.1332  0.4804
    9POL     A7   71   0.032  -0.334   0.645  0.3164  1.2065 -0.0396
    9POL     A8   72   0.155  -0.319   0.545  0.7955  0.7190 -0.5571
   10POL     A1   73   1.982   1.278   1.822 -1.3508  0.0687 -0.4411
   10POL     A2   74   2.037   1.421   1.811  0.0592  0.0348 -0.0613
   10POL     A3   75   2.006   1.470   1.668 -1.0313 -0.0012 -0.9219
   10POL     A4   76   2.003   1.376   1.557  0.3756 -2.0412 -0.7911
   10POL     A5   77   2.143   1.412   1.483 -1.2554 -0.4310  0.4055
   10POL     A6   78   2.250   1.359   1.579 -0.5464  0.4663 -0.6486
   10POL     A7   79   2.277   1.219   1.581 -0.0537  0.8837  1.3287
   10POL     A8   80   2.159   1.141   1.637 -1.5756  0.4392  0.8872
   11POL     A1   81   0.416   0.715   1.937  1.2867  0.0872  0.1259
   11POL     A2   82   0.299   0.656   1.861  0.4335  0.4529 -0.3905
   11POL     A3   83   0.181   0.648   1.952  0.1166  0.3603 -0.3657
   11POL     A4   84   0.204   0.533   2.053 -0.4641  0.6553 -0.4915
   11POL     A5   85   0.312   0.432   2.019  0.4088  0.7285 -0.8078
   11POL     A6   86   0.262   0.294   2.016  0.9977 -0.3266  1.0542
   11POL     A7   87   0.378   0.205   1.978  1.4532  0.0828  0.1244
   11POL     A8   88   0.516   0.252   1.939  0.2106  0.7256  0.9363
   12POL     A1   89   1.473   1.158   0.382 -0.8726  0.5623  0.3558
   12POL     A2   90   1.523   1.025   0.353  0.1877  0.3430 -0.0424
   12POL     A3   91   1.407   0.938   0.376 -0.0181  0.9119 -0.5420
   12POL     A4   92   1.318   0.922   0.265 -0.2921  0.5091  0.2005
   12POL     A5   93   1.337   0.814   0.165 -0.0334 -0.2819  0.4173
   12POL     A6   94   1.460   0.737   0.195 -0.6579 -0.7295 -0.1969
   12POL     A7   95   1.517   0.604   0.127 -0.0012  0.3799 -1.1608
   12POL     A8   96   1.443   0.493   0.194  0.7616 -0.6190  0.1725
   13CAT     A1   97   0.900   1.582   0.094 -0.1869  0.7152  0.5401
   14CAT     A1   98   1.968   1.788   0.385 -0.4257 -0.3418  0.8047
   15CAT     A1   99   1.225   1.570   0.042 -0.9391  0.0397  0.1478
   16CAT     A1  100   1.081   1.515   0.372 -0.2737 -0.1769  0.3071
   17CAT     A1  101   1.522   1.706   0.086  0.3208  0.0694  0.2828
   18CAT     A1  102   1.720   1.629   0.265  0.5210  0.1934 -1.1892
   19CAT     A1  103   0.378   1.789   0.188  0.2760 -0.0779 -0.6201
   20CAT     A1  104   1.326   1.685   0.333 -0.7087  0.3949  0.9663
   21CAT     A1  105   1.922   1.664   0.044  0.3963 -0.1043  0.7141
   22CAT     A1  106   0.149   1.619   0.154 -0.1052 -0.0181 -0.6350
   23CAT     A1  107   0.402   1.537   0.321 -1.2260  0.2446 -0.4782
   24CAT     A1  108   0.179   1.752   0.397  0.2016 -1.2937  0.6116
   25CAT     A1  109   2.130   1.557   0.301  0.9091  0.1382  0.4199
   26CAT     A1  110   1.769   1.876   0.174 -0.0377 -0.0107  0.4100
   27CAT     A1  111   2.172   1.836   0.163  0.2813  0.8207 -0.1665
   28CAT     A1  112   0.581   1.684   0.478  0.5076 -0.4309 -0.3342
   29CAT     A1  113   0.573   1.634   0.035 -0.2035  0.2603 -0.0683
   30CAT     A1  114   1.005   2.064   0.257 -0.7383 -0.3434 -0.1587
   31CAT     A1  115   0.719   1.402   0.222 -0.3704  0.3750  0.0014
   32CAT     A1  116   0.886   1.716   0.373  0.7525  0.4486 -1.6246
   33CAT     A1  117   0.739   1.878   0.096 -0.0207 -0.0057 -0.8292
   34CAT     A1  118   1.068   1.827   0.122 -0.3203  0.4204  0.9374
   35CAT     A1  119   1.377   1.912   0.178  0.2432  0.4134  1.0878
   36CAT     A1  120   0.805   1.959   0.403 -0.5541  0.5857  0.2353
   37CAT     A1  121   1.433   1.440   0.224 -0.2510  0.3588 -0.8534
   38CAT     A1  122   1.154   1.916   0.422  0.1440  0.0096 -0.2743
   39CAT     A1  123   1.566   1.853   0.389  0.2333  0.0588 -0.2904
   40ANI     A1  124   1.580   1.891   0.174 -0.0088  0.7732 -0.3144
   41ANI     A1  125   1.256   1.502   0.294  0.3973  0.5724  0.2687
   42ANI     A1  126   1.337   1.870   0.387  0.2158 -0.4597  0.1018
   43ANI     A1  127   1.418   1.508   0.022  0.3165 -0.7099  0.7171
   44ANI     A1  128   1.757   1.802   0.387  0.3915 -0.4466 -0.2648
   45ANI     A1  129   0.979   2.011   0.469 -0.1137 -0.0290  0.1537
   46ANI     A1  130   0.708   1.512   0.078 -0.4146  0.2678  0.5304
   47ANI     A1  131   1.715   1.690   0.065  0.0471 -0.4413 -0.3772
   48ANI     A1  132   0.170   1.846   0.223  0.5570 -0.4209 -0.0071
   49ANI     A1  133   0.393   1.738   0.386 -0.0893  0.3634  0.3855
   50ANI     A1  134   1.908   1.612   0.251 -0.0131  1.3074 -0.3634
   51ANI     A1  135   0.394   1.580   0.114  0.0882 -0.1078 -0.8280
   52ANI     A1  136   2.166   1.627   0.092  0.2389  0.0352  0.1221
   53ANI     A1  137   2.150   1.709   0.408  0.4633  0.2090  0.1227
   54ANI     A1  138   1.298   1.732   0.133 -0.6800  0.0466 -0.7570
   55ANI     A1  139   1.946   1.879   0.191  0.1638 -0.9045 -0.4021
   56ANI     A1  140   1.523   1.600   0.326  0.1189  0.1359 -0.0974
   57ANI     A1  141   0.167   1.521   0.322  0.7946 -0.5172  0.1828
   58ANI     A1  142   0.555   1.838   0.084 -0.4495 -0.1483 -0.0614
   59ANI     A1  143   1.057   1.672   2.187 -0.3186  0.5398  0.1142
   60ANI     A1  144   0.745   1.792   0.467 -0.4323  0.1718  0.0026
   61ANI     A1  145   1.164   1.983   0.183  0.2406  0.3186  0.7448
   62ANI     A1  146   1.093   1.730   0.424  0.1436  0.0509  0.2974
   63ANI     A1  147   0.916   1.488   0.271  0.1429  0.1086  0.2001
   64ANI     A1  148   0.882   1.754   0.185  0.4630 -0.5065  0.1942
   65ANI     A1  149   0.816   2.017   0.225 -0.0479 -0.1899 -0.8980
   66ANI     A1  150   0.578   1.493   0.407  0.3061  0.3738  0.1873
   67POL     A1  151   0.607   1.786   1.533  0.6048 -0.0356 -0.7468
   67POL     A2  152   0.588   1.701   1.651  0.3713  1.1311 -0.0217
   67POL     A3  153   0.480   1.590   1.631  0.9757 -0.2105  0.3945
   67POL     A4  154   0.349   1.627   1.593 -0.2032  0.6845 -1.0026
   67POL     A5  155   0.284   1.661   1.723  0.8855 -0.3331 -0.2007
   67POL     A6  156   0.380   1.739   1.805 -1.6005 -1.1926 -0.8424
   67POL     A7  157   0.358   1.680   1.941 -0.5388 -0.6558 -1.2767
   67POL     A8  158   0.399   1.762   2.052 -0.3312 -0.0548 -0.0175
   68POL     A1  159   1.734   0.817   1.507  0.2649  1.0316 -0.1441
   68POL     A2  160   1.756   0.866   1.640  0.6631  0.9222  0.3401
   68POL     A3  161   1.826   0.997   1.647  0.7740 -0.5448 -0.2136
   68POL     A4  162   1.942   0.979   1.550  0.1558 -0.3834 -0.7436
   68POL     A5  163   2.045   0.881   1.602 -0.9253 -0.5524 -0.3965
   68POL     A6  164   1.979   0.817   1.712  0.2410  0.1895 -0.6820
   68POL     A7  165   2.070   0.883   1.809  0.8507  0.5215 -0.1538
   68POL     A8  166   2.017   1.023   1.818 -0.3420 -0.4055  0.4913
   69POL     A1  167   2.064   1.916   1.671  0.0514 -1.0661  0.4798
   69POL     A2  168   2.186   1.826   1.685 -0.2843  0.7173  0.3053
   69POL     A3  169   2.221   1.792   1.829 -0.0378 -1.0155 -0.0305
   69POL     A4  170   2.090   1.778   1.908  0.7419 -0.4452  0.3793
   69POL     A5  171   2.104   1.886   2.007 -1.1345 -0.3906 -0.7359
   69POL     A6  172   1.986   1.976   1.986 -0.7366  0.0629 -0.0925
   69POL     A7  173   1.889   1.896   1.886 -1.1756 -0.8942 -1.0616
   69POL     A8  174   1.806   1.858   1.999 -0.3549  0.0266 -0.7473
   70POL     A1  175   1.135   0.541   0.212 -0.5909 -0.5416  0.2846
   70POL     A2  176   1.127   0.416   0.123 -0.2379 -0.0108 -0.1072
   70POL     A3  177   1.243   0.404   0.023 -0.9379  0.2194 -0.0895
   70POL     A4  178   1.284   0.550   0.020 -0.6932 -0.9340  0.3367
   70POL     A5  179   1.375   0.601  -0.091  0.7363  0.2680  0.4804
   70POL     A6  180   1.269   0.605  -0.196  0.0339  0.9081  1.4194
   70POL     A7  181   1.221   0.754  -0.205 -0.2527 -0.0420  0.6430
   70POL     A8  182   1.345   0.837  -0.246 -0.3592 -0.1314  0.8576
   71POL     A1  183   1.640   1.764   1.381  0.1061  0.4506 -0.2926
   71POL     A2  184   1.637   1.677   1.504 -0.3747  0.1984  0.5050
   71POL     A3  185   1.567   1.546   1.469 -0.3523 -1.3483 -0.8757
   71POL     A4  186   1.540   1.532   1.333  0.1765  0.1504  0.0874
   71POL     A5  187   1.586   1.398   1.287  0.0833  0.2908  0.4902
   71POL     A6  188   1.475   1.310   1.250  0.2000  0.3149  0.4729
   71POL     A7  189   1.341   1.340   1.304  0.3237 -0.5704  0.5697
   71POL     A8  190   1.329   1.302   1.444  0.6260  0.4655 -0.2466
   72POL     A1  191   0.045   1.839   1.292 -0.7318 -0.5046  0.1946
   72POL     A2  192   0.098   1.753   1.187 -0.7319  0.4184 -0.8186
   72POL     A3  193   0.198   1.651   1.248 -0.1024 -0.3514  0.3687
   72POL     A4  194   0.132   1.517   1.251  0.4636 -0.0879 -0.8758
   72POL     A5  195   0.186   1.419   1.164  1.6370 -1.4260 -0.4722
   72POL     A6  196   0.279   1.345   1.271  0.5587  0.4494  0.0795
   72POL     A7  197   0.228   1.215   1.354  0.3033 -0.0891  0.0483
   72POL     A8  198   0.170   1.113   1.252  0.9111  0.4548 -1.0815
   73POL     A1  199   1.755   0.430   1.563  0.0755 -0.9584  0.1874
   73POL     A2  200   1.864   0.383   1.660  1.4829 -0.0719  0.7699
   73POL     A3  201   1.980   0.317   1.590 -0.1723  1.0371 -0.5486
   73POL     A4  202   1.923   0.226   1.488  0.3172 -0.9972  0.0987
   73POL     A5  203   1.967   0.232   1.346 -0.3510  0.6892 -0.2084
   73POL     A6  204   1.892   0.141   1.265  0.3797 -0.0333  0.0310
   73POL     A7  205   1.742   0.175   1.254 -0.2067  0.1398 -1.3305
   73POL     A8  206   1.714   0.308   1.208 -0.1938  0.1746  0.5477
   74POL     A1  207   0.216   0.856   1.402  1.0543  0.9339  0.7789
   74POL     A2  208   0.319   0.844   1.291  0.0239  0.5278  0.3622
   74POL     A3  209   0.410   0.725   1.313  0.1316 -0.9082  0.0918
   74POL     A4  210   0.491   0.725   1.444 -0.2330  0.2225 -1.0315
   74POL     A5  211   0.403   0.672   1.554  0.9154  0.6802 -0.4646
   74POL     A6  212   0.422   0.528   1.541  0.6625 -1.2307 -0.2994
   74POL     A7  213   0.388   0.469   1.405 -1.2326 -0.0456 -1.0576
   74POL     A8  214   0.444   0.331   1.380  0.2755  0.7146  0.5059
   75POL     A1  215   1.710   0.009   0.611 -0.0700  0.0515 -0.5385
   75POL     A2  216   1.717   0.057   0.754 -0.1480  0.0751  1.0888
   75POL     A3  217   1.608   0.162   0.765 -0.4790 -0.6082  0.0329
   75POL     A4  218   1.679   0.279   0.831 -0.4438  0.0430  0.8796
   75POL     A5  219   1.763   0.240   0.953  0.7808 -0.0874  0.8667
   75POL     A6  220   1.898   0.185   0.930  1.3018  0.6612 -0.0382
   75POL     A7  221   2.004   0.271   0.888 -0.5080 -0.9452  0.3429
   75POL     A8  222   1.928   0.380   0.830  0.2740 -0.9340  0.7889
   76POL     A1  223   1.229   1.512   1.608 -0.3819 -0.4664 -0.9181
   76POL     A2  224   1.130   1.511   1.705 -0.5987 -1.2876  1.9917
   76POL     A3  225   1.073   1.617   1.792 -0.2496 -0.7141 -0.7188
   76POL     A4  226   1.172   1.720   1.814  1.3924 -0.2739  0.4064
   76POL     A5  227   1.249   1.656   1.915  1.0553  0.1771  0.0838
   76POL     A6  228   1.389   1.642   1.936 -0.1541  0.1880  0.0859
   76POL     A7  229   1.451   1.516   1.867  0.4331 -0.1521  0.3132
   76POL     A8  230   1.485   1.581   1.738 -0.0116 -1.0192  0.9684
   77POL     A1  231   1.857   0.573   0.253  1.0098 -0.9433 -0.7020
   77POL     A2  232   1.796   0.656   0.158 -0.9423  0.0752  0.4633
   77POL     A3  233   1.867   0.632   0.021  0.4032 -0.4657 -0.7454
   77POL     A4  234   1.996   0.697   0.027 -0.2490 -0.1876  0.7892
   77POL     A5  235   1.974   0.789  -0.091 -0.5436 -0.0279  0.0708
   77POL     A6  236   2.107   0.838  -0.147 -1.2408  0.7795  0.5240
   77POL     A7  237   2.175   0.905  -0.043 -0.5247  0.7807 -0.1983
   77POL     A8  238   2.268   0.987  -0.125 -1.0325 -0.2646  0.5490
   78POL     A1  239   0.640   0.167   0.729 -0.6110  0.5279  0.1177
   78POL     A2  240   0.698   0.166   0.868 -0.0983  0.5257  0.2050
   78POL     A3  241   0.677   0.288   0.939 -0.5128 -0.3984  0.4994
   78POL     A4  242   0.531   0.319   0.910  0.3564 -0.7968 -0.8236
   78POL     A5  243   0.523   0.417   0.811  1.0508  0.7132  1.5782
   78POL     A6  244   0.624   0.526   0.795  0.3304  0.5926 -0.3971
   78POL     A7  245   0.752   0.471   0.753 -1.6361  0.2889 -0.1073
   78POL     A8  246   0.876   0.529   0.774 -0.3200  0.3412 -0.9768
   79POL     A1  247   0.370   1.113   2.112  0.4741 -1.3836 -0.0260
   79POL     A2  248   0.294   1.000   2.044  0.1759  0.5906  0.3928
   79POL     A3  249   0.302   1.007   1.892 -0.0201 -1.2008  0.4401
   79POL     A4  250   0.367   1.112   1.814 -1.3617 -0.4194 -0.7721
   79POL     A5  251   0.484   1.029   1.795 -0.8065  0.0793  0.4684
   79POL     A6  252   0.473   0.952   1.670 -0.5415  0.6701  0.9911
   79POL     A7  253   0.558   1.035   1.568  0.8384 -0.4564 -0.6262
   79POL     A8  254   0.478   1.165   1.560 -0.2747  0.1252  0.2624
   80POL     A1  255   0.071   1.277   0.711  0.4119  0.1040 -0.4177
   80POL     A2  256  -0.059   1.254   0.632 -0.1699 -1.0593 -1.2986
   80POL     A3  257  -0.145   1.174   0.714  0.6426  0.1835  0.7331
   80POL     A4  258  -0.214   1.074   0.618 -0.9661 -0.6946  0.4042
   80POL     A5  259  -0.210   1.093   0.471  1.3609  0.1339 -0.4888
   80POL     A6  260  -0.121   1.211   0.426 -0.7716  0.6667  0.1094
   80POL     A7  261  -0.155   1.257   0.277 -0.8442 -0.6368  0.6452
   80POL     A8  262  -0.038   1.201   0.194  0.0935  0.5323 -0.0406
   81POL     A1  263   0.306   2.148   2.140  0.1001 -0.0423  0.8064
   81POL     A2  264   0.237   2.072   2.254 -0.1585 -0.4674 -0.0736
   81POL     A3  265   0.168   2.158   2.371  0.9209  0.0026 -0.5984
   81POL     A4  266   0.148   2.305   2.362  0.2262  0.8850  0.1184
   81POL     A5  267   0.032   2.344   2.284  0.6821  0.6239 -0.5006
   81POL     A6  268  -0.099   2.280   2.341 -0.3457  0.0464  0.3986
   81POL     A7  269  -0.140   2.202   2.228  0.2382 -0.0875 -0.2047
   81POL     A8  270  -0.171   2.275   2.101  0.7146  0.5826 -0.1564
   2.20000   2.20000   2.20000
