dense_salt_polymer
  270
    1POL     A1    1   0.357   0.504   1.292 -0.0987 -0.7224 -1.2852
    1POL     A2    2   0.372   0.437   1.156 -1.2304 -0.9797 -1.2094
    1POL     A3    3   0.303   0.306   1.138  0.3133 -1.3834 -0.1319
    1POL     A4    4   0.221   0.249   1.251 -1.1685 -1.4317 -0.4746
    1POL     A5    5   0.121   0.338   1.317 -0.6138 -0.5440 -0.6709
    1POL     A6    6   0.081   0.453   1.235 -0.2069 -0.5132 -0.4574
    1POL     A7    7  -0.025   0.404   1.143 -0.1646  0.5293 -0.2925
    1POL     A8    8  -0.054   0.248   1.129 -0.2457 -0.4139  0.2427
    2POL     A1    9   0.765   1.616   1.874 -0.2399 -0.9420  1.1269
    2POL     A2   10   0.847   1.571   1.763 -0.4529  0.9130  0.2790
    2POL     A3   11   0.986   1.552   1.799  0.3773 -1.1419 -0.1895
    2POL     A4   12   1.031   1.694   1.844 -0.6917 -0.2816  0.1575
    2POL     A5   13   1.086   1.663   1.980 -1.3583  0.2118  0.8248
    2POL     A6   14   1.238   1.631   1.946  0.0502  0.1979  0.4672
    2POL     A7   15   1.312   1.745   1.896  0.2523  0.1713 -0.5546
    2POL     A8   16   1.305   1.751   1.746  1.0410 -0.2032  0.4425
    3POL     A1   17   1.014   0.471   0.844  0.3672  1.3377 -0.1570
    3POL     A2   18   0.883   0.502   0.887 -0.0153  0.4556 -1.1901
    3POL     A3   19   0.758   0.411   0.852  0.6364 -0.0401  1.8721
    3POL     A4   20   0.807   0.281   0.792  0.0938  0.5051  0.3048
    3POL     A5   21   0.758   0.150   0.870 -0.6700 -1.0992 -1.4152
    3POL     A6   22   0.849   0.140   0.993 -0.4089  0.2399  0.8062
    3POL     A7   23   0.856   0.000   1.028  0.3288  0.1449  0.4687
    3POL     A8   24   0.782  -0.067   0.920  0.7539  0.9111  1.0893
    4POL     A1   25   1.126   0.510   2.110 -0.4187  0.9324 -0.3071
    4POL     A2   26   0.970   0.515   2.095 -0.6620  0.5900 -0.2424
    4POL     A3   27   0.914   0.398   2.037  0.4030 -0.4332 -0.1049
    4POL     A4   28   1.018   0.304   2.041 -0.6610 -0.2998  0.5905
    4POL     A5   29   0.995   0.214   2.155 -0.7931 -0.1495  0.2488
    4POL     A6   30   0.965   0.072   2.113 -0.6157 -1.5438 -0.2699
    4POL     A7   31   1.083   0.037   2.035  0.3631 -0.9610  0.3171
    4POL     A8   32   1.176  -0.018   2.139 -0.6092  0.0002  0.4266
    5POL     A1   33   0.158   1.444   0.807 -1.0602 -0.5370  0.0639
    5POL     A2   34   0.200   1.412   0.661  0.5425  0.4882  1.3710
    5POL     A3   35   0.112   1.320   0.600 -0.4459 -1.8504  0.5189
    5POL     A4   36  -0.030   1.347   0.628  0.6475  0.3757  0.0859
    5POL     A5   37  -0.106   1.228   0.574 -0.3091 -1.0070  0.9513
    5POL     A6   38  -0.032   1.178   0.455 -0.3168  0.0250 -1.0297
    5POL     A7   39   0.073   1.064   0.477  0.2763 -0.3395 -0.5865
    5POL     A8   40   0.089   1.049   0.628 -0.8694  0.7602  0.7154
    6POL     A1   41   2.134   0.997   0.055  0.6322  0.9810 -1.5476
    6POL     A2   42   2.193   1.043   0.172  1.5187 -0.4367  0.6192
    6POL     A3   43   2.294   1.155   0.143  0.2094  0.3375 -0.7879
    6POL     A4   44   2.329   1.233   0.272 -0.0583  0.3309  0.1804
    6POL     A5   45   2.380   1.368   0.234 -0.1467 -1.2815 -0.2997
    6POL     A6   46   2.515   1.353   0.267  0.9404  1.1079  0.9666
    6POL     A7   47   2.606   1.338   0.145  0.0934  0.0006  0.9562
    6POL     A8   48   2.613   1.215   0.065  0.4696  0.0311  0.2243
    7POL     A1   49   0.474   1.189   1.430  0.0565  0.8136 -0.3415
    7POL     A2   50   0.341   1.257   1.422  0.0332  0.8158  0.1061
    7POL     A3   51   0.210   1.216   1.480  0.6090  0.3298 -1.4061
    7POL     A4   52   0.143   1.346   1.535 -0.4233  0.6335 -1.0385
    7POL     A5   53   0.174   1.362   1.686 -0.3447 -1.0202  0.5753
    7POL     A6   54   0.304   1.380   1.742 -0.0117 -0.3320 -0.3749
    7POL     A7   55   0.365   1.253   1.793  0.0319 -0.0227 -0.0682
    7POL     A8   56   0.406   1.161   1.678  0.3735 -0.9306  1.0456
    8POL     A1   57   1.917   1.132   0.264 -0.2646  0.2659  1.5124
    8POL     A2   58   1.952   1.190   0.135  0.8477 -1.2300  1.3070
    8POL     A3   59   1.860   1.165   0.024  0.8510 -0.8785  0.8602
    8POL     A4   60   1.702   1.176   0.042 -0.3637  0.0001 -0.0953
    8POL     A5   61   1.646   1.328   0.049 -1.2925 -0.5845  0.2556
    8POL     A6   62   1.728   1.452   0.091  0.3598 -0.2783 -0.6154
    8POL     A7   63   1.823   1.421   0.189 -0.6678  0.4045  0.9087
    8POL     A8   64   1.762   1.438   0.326  0.2534 -0.0963  0.4811
    9POL     A1   65   0.875   1.699   0.551  0.6892 -0.7937 -0.6611
    9POL     A2   66   0.800   1.753   0.424 -0.7436  0.4196 -0.7360
    9POL     A3   67   0.818   1.688   0.285  1.1850  0.1628  0.7348
    9POL     A4   68   0.917   1.765   0.216 -0.0334 -0.4306 -0.0830
    9POL     A5   69   1.018   1.791   0.305 -0.0463  1.5819 -0.6296
    9POL     A6   70   1.147   1.814   0.245 -0.1499 -0.1017  0.4021
    9POL     A7   71   1.207   1.683   0.181  0.3767 -1.0350 -0.6368
    9POL     A8   72   1.250   1.578   0.275 -1.5304  0.3611 -0.3203
   10POL     A1   73   0.104   1.623   2.140 -0.4686 -0.5728 -0.1106
   10POL     A2   74   0.221   1.527   2.145  0.9556  1.0001 -0.1270
   10POL     A3   75   0.325   1.608   2.214  0.7207 -0.4170 -0.8233
   10POL     A4   76   0.449   1.607   2.141 -0.1227 -1.0349 -0.2840
   10POL     A5   77   0.421   1.574   2.000 -0.7804 -0.4153 -0.6119
   10POL     A6   78   0.466   1.680   1.892  0.3834  0.2011  0.1583
   10POL     A7   79   0.481   1.815   1.951  0.2157  0.5037  0.8340
   10POL     A8   80   0.447   1.838   2.095 -0.5792 -0.0889 -0.5527
   11POL     A1   81   1.435   1.096   1.231  0.5418 -0.6318 -0.0140
   11POL     A2   82   1.326   1.011   1.306 -1.0981  0.8529  1.2646
   11POL     A3   83   1.215   1.107   1.267 -0.1779  1.0909 -0.1674
   11POL     A4   84   1.069   1.078   1.245  1.2920 -0.5085 -0.0549
   11POL     A5   85   1.046   0.944   1.196 -0.4811  0.5198 -0.0758
   11POL     A6   86   1.043   0.926   1.044 -0.7743  0.6887  0.1856
   11POL     A7   87   1.161   0.984   0.963 -1.3237 -0.1563  1.5717
   11POL     A8   88   1.251   1.065   1.034 -0.1499 -0.8544 -0.1324
   12POL     A1   89   0.825   0.706   0.011  0.2201 -0.5658 -0.7373
   12POL     A2   90   0.897   0.770   0.134 -1.4069 -0.4346  0.0175
   12POL     A3   91   0.874   0.723   0.278 -0.0519  1.1934 -0.7651
   12POL     A4   92   1.016   0.715   0.337 -0.8418 -0.7535  0.2217
   12POL     A5   93   1.071   0.580   0.327 -0.8946  1.2764 -0.3307
   12POL     A6   94   1.018   0.514   0.454  0.8177  0.5302 -0.5786
   12POL     A7   95   1.132   0.555   0.539 -1.4843 -0.5012 -0.4100
   12POL     A8   96   1.246   0.473   0.560 -0.0900  0.5720 -0.7748
   13CAT     A1   97   2.110   1.919   0.999  0.0010  0.8571 -0.6251
   14CAT     A1   98   0.752   1.903   0.986  0.4224 -0.2939  0.0150
   15CAT     A1   99   0.336   1.957   1.007 -0.2447 -0.1851 -0.4990
   16CAT     A1  100   0.544   1.954   1.222  0.1501  0.7304 -0.2003
   17CAT     A1  101   0.526   1.728   0.998  0.1100 -0.2484  0.6708
   18CAT     A1  102   0.940   1.670   0.985  0.1078 -0.0854  0.8624
   19CAT     A1  103   1.156   1.717   1.183 -0.3485  0.2574 -0.0749
   20CAT     A1  104   0.755   1.974   1.418  0.3517  0.4197 -0.1660
   21CAT     A1  105   0.973   1.730   1.398  0.3507 -0.3988 -0.1309
   22CAT     A1  106   0.747   1.732   1.228  0.2118  0.8819 -0.0028
   23CAT     A1  107   1.347   1.774   1.489  0.2158  0.2777 -0.3642
   24CAT     A1  108   1.173   1.946   1.363 -0.0630 -1.0410  0.5968
   25CAT     A1  109   0.565   1.769   1.422  0.3668  0.5707  0.0790
   26CAT     A1  110   1.147   1.865   0.980 -0.2062 -0.2493  0.7734
   27CAT     A1  111   0.956   1.922   1.165  0.0227  0.4105  0.0692
   28CAT     A1  112   1.728   1.918   1.048 -0.1471 -0.1067 -0.5557
   29CAT     A1  113   1.540   1.959   1.417 -0.1821 -0.3668 -0.3337
   30CAT     A1  114   0.112   1.702   1.041  0.0330  0.2717  0.2615
   31CAT     A1  115   1.699   1.759   1.277  0.4180 -0.4642  0.1585
   32CAT     A1  116   0.323   1.740   1.233 -0.0075 -0.5154 -0.1515
   33CAT     A1  117   2.141   1.739   1.256  0.2820 -0.4343 -0.5455
   34CAT     A1  118   2.181   1.949   1.442 -0.2821  0.4463  0.4638
   35CAT     A1  119   1.922   1.944   1.212  0.0820 -0.0204  1.3210
   36CAT     A1  120   0.135   2.028   1.216 -0.4702 -1.3314  0.3436
   37CAT     A1  121   0.164   1.626   1.430 -0.4937  0.6212 -0.0336
   38CAT     A1  122   1.894   1.661   1.052 -0.0200 -1.0421 -0.1015
   39CAT     A1  123   0.334   1.971   1.428 -0.5463  0.5501 -0.4198
   40ANI     A1  124   0.557   1.983   1.437 -0.5618  0.9971  0.0891
   41ANI     A1  125   0.106   1.966   1.027  0.5466 -0.2530 -0.5837
   42ANI     A1  126   0.011   1.756   1.447  0.2383 -0.2742 -0.2581
   43ANI     A1  127   0.536   1.757   1.225  0.5389  0.2344  0.4503
   44ANI     A1  128   0.760   1.946   1.181  0.3179  0.0485 -1.0576
   45ANI     A1  129   2.119   1.967   1.261 -0.5285  0.2663 -0.1173
   46ANI     A1  130   2.112   1.698   1.019 -0.7311  0.4548 -0.1105
   47ANI     A1  131   0.733   1.682   0.970 -0.4930  0.1748 -0.4690
   48ANI     A1  132   0.541   1.937   1.018 -0.2444 -0.5573 -0.4680
   49ANI     A1  133   1.192   1.731   1.378  0.0646  0.3082  0.2663
   50ANI     A1  134   0.785   1.768   1.421  0.0098  0.5564  0.2286
   51ANI     A1  135   0.955   1.705   1.188 -0.0639  0.0566 -0.1284
   52ANI     A1  136   0.343   1.758   1.429 -0.3544 -0.1787 -0.6491
   53ANI     A1  137   0.958   1.879   0.951 -0.0404  0.6028  0.6623
   54ANI     A1  138   1.156   1.916   1.175 -0.3479 -0.1555 -0.1263
   55ANI     A1  139   0.979   1.959   1.389 -0.5202  0.4351 -0.2325
   56ANI     A1  140   1.153   1.666   0.981 -0.7029  0.6893  0.4123
   57ANI     A1  141   1.346   1.981   1.476  0.0873  0.8542 -0.2625
   58ANI     A1  142   1.918   1.928   1.021  0.2105  1.0409 -0.1619
   59ANI     A1  143   1.915   1.733   1.265  0.1574 -0.2678 -0.5753
   60ANI     A1  144   0.130   2.058   1.432  0.6803  0.1052 -0.7216
   61ANI     A1  145   1.691   1.959   1.225 -0.2644  0.3352  0.5554
   62ANI     A1  146   0.130   1.595   1.217 -0.3650  0.3330 -0.0551
   63ANI     A1  147   0.323   1.737   1.028 -0.2489 -0.7224  0.4851
   64ANI     A1  148   1.709   1.724   1.069  0.0259  0.3134 -0.4637
   65ANI     A1  149   0.319   1.974   1.209  0.2931 -0.2546  0.2526
   66ANI     A1  150   1.546   1.760   1.403  1.0525 -0.3560 -0.2419
   67POL     A1  151   1.403   1.481   0.579 -0.3757  0.6709 -1.1235
   67POL     A2  152   1.500   1.370   0.560  0.1088  1.1218 -1.3670
   67POL     A3  153   1.495   1.328   0.417 -0.7416 -1.9228  0.5558
   67POL     A4  154   1.346   1.270   0.402  1.0759 -0.4021  1.2019
   67POL     A5  155   1.293   1.167   0.492 -0.1083 -1.3634  0.3534
   67POL     A6  156   1.243   1.234   0.619 -0.7277  1.2760  0.7662
   67POL     A7  157   1.125   1.331   0.576  0.6072 -0.2265 -0.0024
   67POL     A8  158   1.082   1.303   0.427  0.0397 -0.9717  0.7058
   68POL     A1  159   1.269   1.438   1.159  0.1521  0.2379 -0.3008
   68POL     A2  160   1.406   1.402   1.213  0.5071  0.4492  0.1220
   68POL     A3  161   1.500   1.437   1.111 -0.9967 -0.1122  0.0756
   68POL     A4  162   1.494   1.329   1.013  0.8060 -0.8979 -0.8332
   68POL     A5  163   1.617   1.279   0.939  1.5846  0.6302  0.0954
   68POL     A6  164   1.633   1.392   0.853  0.1866 -0.2448  0.1003
   68POL     A7  165   1.717   1.482   0.941  0.7688  0.2483 -0.1526
   68POL     A8  166   1.781   1.422   1.065 -0.9547  0.4050 -0.1872
   69POL     A1  167   0.285   0.540   0.125 -0.3476 -1.0024  0.6432
   69POL     A2  168   0.333   0.626   0.013 -1.0747 -0.4373  0.5941
   69POL     A3  169   0.473   0.649   0.002  0.1896 -1.1346  0.8812
   69POL     A4  170   0.545   0.604   0.113 -0.6461  0.4691  0.1425
   69POL     A5  171   0.512   0.684   0.241 -0.9860 -0.6957 -0.0555
   69POL     A6  172   0.574   0.812   0.265 -0.8194 -0.2600 -0.6550
   69POL     A7  173   0.477   0.884   0.346 -0.6242  0.0998 -0.0163
   69POL     A8  174   0.362   0.964   0.288  0.2990  0.1499  0.5465
   70POL     A1  175   0.674   0.783   0.666  0.8635  0.8871 -1.2069
   70POL     A2  176   0.643   0.682   0.772  0.7069  0.5808 -1.0151
   70POL     A3  177   0.514   0.719   0.823 -0.2802 -1.1586 -0.1860
   70POL     A4  178   0.527   0.742   0.968  1.1194 -0.8061  0.6588
   70POL     A5  179   0.666   0.722   1.034 -0.2504  0.4830  0.8541
   70POL     A6  180   0.662   0.724   1.179  0.6117  0.7857  0.8440
   70POL     A7  181   0.554   0.805   1.257  0.6665  0.0633 -0.1653
   70POL     A8  182   0.417   0.731   1.242 -0.0226  0.3128 -0.0748
   71POL     A1  183   0.990   1.988   0.073 -0.9902  0.2102 -0.4779
   71POL     A2  184   0.978   1.943  -0.065 -0.3365  0.9261 -0.2908
   71POL     A3  185   0.861   1.863  -0.099 -0.1709  0.6313  0.4896
   71POL     A4  186   0.757   1.953  -0.150  0.1447 -0.2867  0.5045
   71POL     A5  187   0.800   2.074  -0.229  1.2240 -0.0087 -1.2424
   71POL     A6  188   0.812   2.034  -0.377  0.6886 -0.3413  1.1051
   71POL     A7  189   0.668   2.064  -0.435 -0.0460  0.7019  0.2769
   71POL     A8  190   0.581   2.163  -0.367 -0.5148  0.6545 -1.0234
   72POL     A1  191   0.205   0.219   1.563  0.0121  0.3530 -1.4505
   72POL     A2  192   0.203   0.312   1.671  0.6048  0.1662 -1.1341
   72POL     A3  193   0.147   0.243   1.799  0.5131 -0.0073 -0.2797
   72POL     A4  194   0.184   0.104   1.806 -1.5450  0.3938  0.3542
   72POL     A5  195   0.256   0.059   1.938  0.1085 -0.7761 -0.4071
   72POL     A6  196   0.280   0.184   2.032 -0.9460  0.1600 -0.5218
   72POL     A7  197   0.385   0.259   1.957  0.0796  0.3543 -0.3112
   72POL     A8  198   0.380   0.393   1.910 -0.1821  0.0117 -0.4722
   73POL     A1  199   0.701   0.098   0.042 -0.3564  0.7248  0.5890
   73POL     A2  200   0.740  -0.054   0.057  0.6693 -1.1381  0.0352
   73POL     A3  201   0.632  -0.133   0.121 -0.0525  0.9195  0.6117
   73POL     A4  202   0.545  -0.023   0.174  0.2526  0.2285  1.1803
   73POL     A5  203   0.435   0.018   0.082 -0.1001 -0.0146 -0.5263
   73POL     A6  204   0.399   0.160   0.101 -0.3081  0.0737  0.0126
   73POL     A7  205   0.468   0.239   0.201 -0.0355 -0.1026  0.3003
   73POL     A8  206   0.377   0.286   0.295  0.0312 -1.1905 -1.2749
   74POL     A1  207   1.650   0.556   0.633  0.0090  0.0907 -0.0415
   74POL     A2  208   1.531   0.479   0.577 -0.3792  0.5824  1.1135
   74POL     A3  209   1.541   0.369   0.484  0.8135  0.2458  0.7056
   74POL     A4  210   1.678   0.369   0.433  1.0734  0.0983  0.5590
   74POL     A5  211   1.690   0.432   0.300 -0.4730  0.4161 -0.0545
   74POL     A6  212   1.669   0.583   0.310  0.5744  0.7164  1.8043
   74POL     A7  213   1.730   0.666   0.198  0.5754  0.7780  0.3648
   74POL     A8  214   1.806   0.784   0.236 -0.5272 -0.0255 -0.2687
   75POL     A1  215   1.774   2.091   0.346 -0.7192  1.5830  0.6114
   75POL     A2  216   1.726   2.122   0.215 -0.0778 -0.5527 -0.4687
   75POL     A3  217   1.571   2.120   0.230  0.9241  1.3044  0.0508
   75POL     A4  218   1.527   2.245   0.287  0.2592 -0.6435 -0.4955
   75POL     A5  219   1.516   2.375   0.209 -1.3508  0.4921 -0.4602
   75POL     A6  220   1.464   2.354   0.062  0.3738 -0.4633  0.5178
   75POL     A7  221   1.543   2.261  -0.017  0.3358  0.3054  0.3428
   75POL     A8  222   1.588   2.336  -0.138  0.3509 -0.2423  0.0453
   76POL     A1  223   1.527   0.783   0.835  0.1875 -0.7925  0.2257
   76POL     A2  224   1.568   0.689   0.955  1.9807  0.5744  0.4052
   76POL     A3  225   1.697   0.671   1.017 -0.1233  0.0498  0.0116
   76POL     A4  226   1.753   0.543   0.976  1.1545  0.0285  0.8933
   76POL     A5  227   1.647   0.428   0.969 -0.4232 -0.4926 -1.1849
   76POL     A6  228   1.659   0.320   1.080 -0.0546 -0.1678 -1.0172
   76POL     A7  229   1.699   0.185   1.055  0.6343  0.1008 -0.1217
   76POL     A8  230   1.778   0.163   0.937  0.0846  0.1384  0.0265
   77POL     A1  231   1.262   1.124   0.228 -1.5145 -1.9018 -0.0552
   77POL     A2  232   1.248   1.069   0.092  0.7301 -1.1579 -0.3783
   77POL     A3  233   1.356   1.014  -0.007 -0.3455 -1.8774  0.7694
   77POL     A4  234   1.442   0.898   0.056  0.6431 -0.6351 -0.3841
   77POL     A5  235   1.540   0.942   0.156  0.5786 -1.2801  1.3127
   77POL     A6  236   1.485   0.956   0.296 -0.0745  0.4207  0.1307
   77POL     A7  237   1.390   0.852   0.349  0.5087 -0.9170  0.6412
   77POL     A8  238   1.251   0.922   0.356  1.0616  0.2926  1.2495
   78POL     A1  239   1.644   1.910   1.741  0.8841 -0.3711  0.6040
   78POL     A2  240   1.734   1.926   1.613  0.0832 -0.1813 -1.6611
   78POL     A3  241   1.831   2.045   1.666  0.2342  1.6757  0.4311
   78POL     A4  242   1.786   2.178   1.637 -0.6989  0.2367  0.0841
   78POL     A5  243   1.743   2.220   1.518  0.8489 -0.2334  0.1147
   78POL     A6  244   1.615   2.154   1.469  1.4164  1.4608 -0.3269
   78POL     A7  245   1.535   2.255   1.554  0.6783 -0.5333  0.8216
   78POL     A8  246   1.592   2.377   1.615  0.8673  0.4027 -0.8271
   79POL     A1  247   1.432   1.723   0.885 -0.3111 -0.6356  0.6661
   79POL     A2  248   1.425   1.770   0.737  0.9499 -0.5987  0.2710
   79POL     A3  249   1.299   1.846   0.699  1.0595 -0.7554 -2.6935
   79POL     A4  250   1.269   1.940   0.818  0.2106 -0.5667 -0.0630
   79POL     A5  251   1.284   2.083   0.791 -1.2883  0.1468  0.1573
   79POL     A6  252   1.243   2.102   0.653  0.2713 -0.1296  0.8957
   79POL     A7  253   1.111   2.158   0.677  1.1498  0.4043 -0.5661
   79POL     A8  254   1.045   2.113   0.810 -0.6073 -0.9838  0.5721
   80POL     A1  255   1.883   0.110   1.959  0.0886 -1.4424  0.1253
   80POL     A2  256   1.883   0.258   1.935 -1.1922 -0.2019  0.2421
   80POL     A3  257   1.753   0.312   1.978  0.5716  0.2020  0.3237
   80POL     A4  258   1.729   0.412   2.093 -0.4576  0.0216 -0.3597
   80POL     A5  259   1.712   0.557   2.028  0.5488 -0.2625  1.1257
   80POL     A6  260   1.723   0.529   1.881 -0.5021 -0.4644  0.2601
   80POL     A7  261   1.680   0.667   1.808  0.5319 -1.0780 -0.8202
   80POL     A8  262   1.548   0.662   1.731  0.1959  0.1891  1.7682
   81POL     A1  263   2.099   1.906   0.423 -0.1037 -0.5530 -0.3250
   81POL     A2  264   2.091   1.827   0.540  0.9266  1.0986 -0.1190
   81POL     A3  265   2.150   1.686   0.517 -0.3394  0.2282  0.3348
   81POL     A4  266   2.278   1.699   0.431  0.2605  0.0548 -1.0235
   81POL     A5  267   2.401   1.779   0.485 -0.9289  0.9706 -1.1524
   81POL     A6  268   2.509   1.678   0.544  0.5422  0.2157  1.1356
   81POL     A7  269   2.601   1.605   0.450 -0.2149 -0.8607  0.2036
   81POL     A8  270   2.614   1.689   0.340  0.2021 -0.2359 -1.0825
   2.20000   2.20000   2.20000
