tp1_5c_dense_nonlisted
    4
    1SYS     A1    1   0.177   0.950   1.606 -0.1017  0.4412  1.1242
    1SYS     A2    2   0.305   0.956   1.319 -0.2644 -0.7218 -0.3073
    1SYS     A3    3   2.184   0.919   0.485  0.3462  2.1695  0.4642
    1SYS     A4    4   2.104   1.175   0.589  0.0199 -1.8889 -1.2811
   2.50000   2.50000   2.50000
