dense_salt_polymer
  270
    1POL     A1    1   1.558   1.491   1.003 -0.5972  0.0466  0.4484
    1POL     A2    2   1.597   1.451   1.143  1.0747 -1.3389 -0.4756
    1POL     A3    3   1.526   1.535   1.251 -0.1201 -0.4048  0.3458
    1POL     A4    4   1.387   1.476   1.256  0.1730  0.1041  0.5354
    1POL     A5    5   1.381   1.338   1.187  0.6937  0.8453  1.0991
    1POL     A6    6   1.292   1.244   1.258 -0.0685  0.1284  0.5957
    1POL     A7    7   1.361   1.255   1.395  0.0374 -0.3642  0.5022
    1POL     A8    8   1.290   1.183   1.501 -0.2422  0.3659 -0.0551
    2POL     A1    9   0.531   1.008   2.139 -0.3621 -1.2274 -0.1265
    2POL     A2   10   0.649   0.982   2.054 -0.7368 -0.0451  0.6634
    2POL     A3   11   0.657   0.836   2.052 -0.6258 -0.0209 -0.5982
    2POL     A4   12   0.664   0.787   1.917 -0.1891 -1.0217  0.3086
    2POL     A5   13   0.561   0.845   1.832 -0.9506 -0.3753 -0.6174
    2POL     A6   14   0.625   0.960   1.758  1.1255 -1.0888  0.7934
    2POL     A7   15   0.744   1.011   1.803  0.9876  0.9574  0.2804
    2POL     A8   16   0.854   0.955   1.707 -0.0399  0.0329 -0.4718
    3POL     A1   17   2.058   1.175   0.581  0.1431  0.2159  1.2293
    3POL     A2   18   2.117   1.305   0.619 -0.4567 -0.9582  1.1171
    3POL     A3   19   2.186   1.385   0.510  0.3967 -0.1782 -0.2726
    3POL     A4   20   2.071   1.470   0.462 -0.3084 -0.3603  0.2154
    3POL     A5   21   1.945   1.458   0.537 -0.1177  0.7403 -0.8732
    3POL     A6   22   1.833   1.384   0.480  1.0030  0.6164  0.1413
    3POL     A7   23   1.836   1.255   0.405  0.1941  0.2373  0.0618
    3POL     A8   24   1.898   1.256   0.271 -0.7583 -0.8888  0.2334
    4POL     A1   25   0.122   1.759   0.929 -0.1386 -0.5045 -0.3459
    4POL     A2   26   0.083   1.710   0.800 -0.3890 -0.7955  0.1539
    4POL     A3   27   0.193   1.613   0.777  1.1364  0.7282  0.3072
    4POL     A4   28   0.326   1.672   0.786  0.9442  0.0613  0.5821
    4POL     A5   29   0.420   1.569   0.776  0.4261 -1.0775 -0.7206
    4POL     A6   30   0.460   1.498   0.895  0.4718  0.5237 -0.2094
    4POL     A7   31   0.483   1.357   0.919  0.4375  0.3222 -1.0471
    4POL     A8   32   0.592   1.337   0.821 -0.2198 -0.0347  0.6002
    5POL     A1   33   1.357   1.556   2.021 -0.5112 -0.7801  0.3165
    5POL     A2   34   1.302   1.436   2.095 -0.8650 -0.0988  0.6341
    5POL     A3   35   1.370   1.418   2.224  0.4603  0.2865  0.0947
    5POL     A4   36   1.256   1.382   2.313 -0.1469 -0.0954 -0.6030
    5POL     A5   37   1.282   1.463   2.435  0.2515  0.5166 -0.3895
    5POL     A6   38   1.198   1.576   2.395 -0.3620  0.9819  1.3970
    5POL     A7   39   1.239   1.671   2.296  0.2850  0.1939  0.0672
    5POL     A8   40   1.387   1.664   2.254 -0.0521  0.2170 -0.5171
    6POL     A1   41   0.839   0.374   1.942 -0.6253 -0.6751 -0.1181
    6POL     A2   42   0.901   0.478   2.030  0.0509 -0.7958  0.2139
    6POL     A3   43   1.033   0.501   1.986 -0.3729 -0.2724 -0.0372
    6POL     A4   44   1.026   0.608   1.886 -0.2044  0.0319 -0.5956
    6POL     A5   45   0.931   0.734   1.917 -0.1155 -0.2675 -0.4710
    6POL     A6   46   0.848   0.717   2.053  0.2894  0.5855 -0.3063
    6POL     A7   47   0.887   0.753   2.196 -1.6305  1.1387 -0.5521
    6POL     A8   48   0.919   0.909   2.180  0.3976  0.9722  0.0082
    7POL     A1   49   0.111   1.600   0.287  0.2447 -0.3775  0.6633
    7POL     A2   50   0.126   1.688   0.162 -0.9612  0.2093 -0.1159
    7POL     A3   51  -0.015   1.696   0.098 -0.2545  0.8550  0.6289
    7POL     A4   52  -0.066   1.830   0.070  0.0774  0.2147  0.0876
    7POL     A5   53  -0.140   1.876   0.194 -0.3488  0.0460 -0.9183
    7POL     A6   54  -0.050   1.946   0.289  0.5753  0.7401  1.0306
    7POL     A7   55  -0.095   2.074   0.324 -0.0453 -0.4565 -0.1885
    7POL     A8   56  -0.198   2.056   0.454 -0.0891 -1.3461 -0.0588
    8POL     A1   57   0.536   1.875   1.544  0.4253  0.6736 -0.2433
    8POL     A2   58   0.630   1.755   1.529 -0.0679  0.1489 -0.6764
    8POL     A3   59   0.668   1.711   1.390  0.6602 -0.7421  0.5870
    8POL     A4   60   0.613   1.567   1.359 -0.5544 -0.4860  0.0373
    8POL     A5   61   0.510   1.587   1.253 -0.0894  1.2628 -1.8678
    8POL     A6   62   0.376   1.583   1.308  0.1406 -0.1057  2.0694
    8POL     A7   63   0.351   1.659   1.421 -0.1609  0.2202  0.1007
    8POL     A8   64   0.328   1.793   1.363 -0.1266 -0.7236 -0.2049
    9POL     A1   65   1.764   1.973   0.528 -0.3592 -0.1814  0.6363
    9POL     A2   66   1.651   2.054   0.585 -0.1578 -0.3623 -0.4464
    9POL     A3   67   1.656   2.046   0.727  1.0661 -0.3913 -0.0671
    9POL     A4   68   1.787   2.071   0.793  0.2113  0.0650  0.2718
    9POL     A5   69   1.848   1.949   0.802 -0.5272 -0.2258 -0.2879
    9POL     A6   70   1.760   1.851   0.863 -0.4544  0.7447 -0.4114
    9POL     A7   71   1.740   1.884   1.010 -0.6205  1.2493 -0.8008
    9POL     A8   72   1.827   1.957   1.109 -0.1385 -0.8202 -0.4759
   10POL     A1   73   0.123   0.744   0.937  0.4541 -0.3621  0.6697
   10POL     A2   74   0.007   0.832   0.888  0.5100  0.2150  0.5006
   10POL     A3   75  -0.024   0.914   1.012  0.0683 -0.6849 -0.6026
   10POL     A4   76  -0.165   0.944   1.039 -1.2703 -1.2102  0.3240
   10POL     A5   77  -0.225   0.810   1.036  0.4122 -0.2536  1.1816
   10POL     A6   78  -0.321   0.785   0.929 -0.6147  0.2246 -0.5517
   10POL     A7   79  -0.339   0.638   0.942  0.7951 -1.5604 -0.0640
   10POL     A8   80  -0.484   0.612   0.972  0.6417  0.8014  0.0896
   11POL     A1   81   0.295   1.656   2.199 -0.3727 -1.1168  1.2543
   11POL     A2   82   0.430   1.719   2.170  0.3615  0.0326  0.2724
   11POL     A3   83   0.467   1.758   2.311  0.9142 -0.3952  0.0855
   11POL     A4   84   0.574   1.679   2.373 -0.8825  0.0315 -0.8058
   11POL     A5   85   0.639   1.623   2.257  0.4122  0.1877  0.5241
   11POL     A6   86   0.736   1.714   2.175  1.0724  0.6859  0.3872
   11POL     A7   87   0.778   1.681   2.044  0.4348  0.2342 -0.0807
   11POL     A8   88   0.776   1.805   1.965  0.1381 -0.0200 -0.8181
   12POL     A1   89   0.340   0.540   0.784 -0.4947  0.0428  0.5265
   12POL     A2   90   0.224   0.629   0.739  1.1693 -0.1070 -0.3414
   12POL     A3   91   0.238   0.658   0.599  0.0619  0.8739 -0.9579
   12POL     A4   92   0.392   0.691   0.569  0.2763  0.1315 -0.3212
   12POL     A5   93   0.443   0.707   0.424 -0.8151 -0.5823 -0.3143
   12POL     A6   94   0.339   0.728   0.318 -0.9391 -0.3929  0.2930
   12POL     A7   95   0.245   0.832   0.371  0.0354  0.7122  0.2668
   12POL     A8   96   0.312   0.957   0.329  0.7466  0.8483 -0.9644
   13CAT     A1   97   0.578   0.602   1.152 -0.5024 -0.5268 -0.0364
   14CAT     A1   98   0.647   0.493   1.401 -0.4331 -0.0229 -0.3951
   15CAT     A1   99   0.631   0.077   1.472 -0.1297 -0.0770  0.3950
   16CAT     A1  100   0.456   2.180   1.769 -0.6423 -0.5771 -1.1432
   17CAT     A1  101   0.942   0.575   1.259  0.1338  0.0498  0.4278
   18CAT     A1  102   1.196   0.449   0.935 -0.2455  0.4589 -0.6016
   19CAT     A1  103   1.345   0.706   1.448  0.4812  0.6485 -1.1106
   20CAT     A1  104   1.180   0.444   1.444 -0.1882  0.3039  0.3622
   21CAT     A1  105   1.258   0.593   1.187 -0.0095 -0.0634  0.5903
   22CAT     A1  106   1.393   0.335   1.085  0.1593  0.1691  0.4353
   23CAT     A1  107   1.550   0.590   1.098 -0.0771 -0.4661 -0.7135
   24CAT     A1  108   1.444   0.435   1.365  0.4887 -0.0517  0.4252
   25CAT     A1  109   1.073   0.308   1.182 -0.3893 -0.2376  0.2947
   26CAT     A1  110   0.877   0.205   1.476  0.0801 -0.5178 -0.3473
   27CAT     A1  111   0.836   0.013   1.670 -0.5688 -0.3164 -0.7277
   28CAT     A1  112   1.790   0.339   1.089 -0.1118 -0.0403  0.3241
   29CAT     A1  113   2.027   0.187   1.122  0.5699  0.7675  0.3695
   30CAT     A1  114   1.856   2.136   1.126 -0.4822 -0.3125 -1.0344
   31CAT     A1  115   2.138   0.450   1.213 -0.1797 -0.1924  0.4432
   32CAT     A1  116   0.428   0.282   1.377  0.1884 -0.1908  0.1112
   33CAT     A1  117   0.314   0.469   1.158 -0.0144 -0.2313  0.1810
   34CAT     A1  118   2.197   0.015   1.293 -0.1839  0.1492  0.2977
   35CAT     A1  119   0.336   0.073   1.208  0.0028  0.0162  0.6763
   36CAT     A1  120   0.291   0.226   1.673 -0.4054 -0.3644  0.0669
   37CAT     A1  121   0.300   0.008   1.470  0.6024 -0.1961  0.2537
   38CAT     A1  122   0.142   0.325   1.321 -0.8663 -1.2153 -0.0781
   39CAT     A1  123   0.654   0.261   1.705  0.3851  0.2558  0.0053
   40ANI     A1  124   0.476   0.203   1.756 -0.3103  0.0867 -0.2436
   41ANI     A1  125   0.489   0.485   1.307 -0.4727 -0.0742 -0.0654
   42ANI     A1  126   0.463   0.086   1.380 -0.1690 -0.2723  0.2190
   43ANI     A1  127   0.760   0.589   1.255 -1.1674  0.1002  0.3004
   44ANI     A1  128   0.678   0.287   1.494  0.0664 -0.2969 -0.0623
   45ANI     A1  129   0.631   2.176   1.680  0.2108  0.5928  0.0218
   46ANI     A1  130   0.431   0.579   1.037 -0.2037  0.4550  0.0245
   47ANI     A1  131   1.139   0.629   1.354  0.2405  0.1388 -0.4666
   48ANI     A1  132   1.001   0.336   1.377  0.4539  0.7203 -0.5086
   49ANI     A1  133   1.351   0.522   1.522  0.3537  0.2976 -0.2573
   50ANI     A1  134   1.079   0.484   1.108 -0.2182 -0.0516  0.1826
   51ANI     A1  135   1.371   0.522   1.029 -0.2479  0.7201 -0.3147
   52ANI     A1  136   1.241   0.262   0.982 -0.2609 -0.7034  0.2057
   53ANI     A1  137   1.287   0.331   1.279  0.5707 -0.0013  0.1097
   54ANI     A1  138   0.848   0.224   1.697  0.3932  0.0784  0.1993
   55ANI     A1  139   0.829   0.023   1.444 -0.0657 -0.0739  0.2437
   56ANI     A1  140   1.451   0.635   1.284 -0.4362  0.1546 -0.5761
   57ANI     A1  141   1.620   0.432   1.154  0.3055  0.2944  0.0084
   58ANI     A1  142   1.821   0.144   1.107  0.7394 -0.1222  0.1390
   59ANI     A1  143   2.168   0.235   1.278  0.1972  0.1029 -0.5304
   60ANI     A1  144   2.038   2.182   1.173  0.1100  0.2104  0.1510
   61ANI     A1  145   0.133   0.517   1.240 -0.2313 -0.4797 -0.3051
   62ANI     A1  146   0.305   0.270   1.186 -0.0019 -0.1051  0.7181
   63ANI     A1  147   0.188   2.185   1.308 -0.0302  0.3489 -0.1508
   64ANI     A1  148   0.272   0.241   1.484 -0.8387 -0.0830  0.4791
   65ANI     A1  149   0.283   0.004   1.691 -0.3720 -0.3500  0.2014
   66ANI     A1  150   1.992   0.390   1.073 -0.3921  0.3220  0.1744
   67POL     A1  151   0.915   2.189   1.192 -0.9234 -1.1201 -0.3910
   67POL     A2  152   1.054   2.215   1.211  0.5593  0.1729  0.9744
   67POL     A3  153   1.102   2.125   1.319  0.1550  0.9103 -1.2364
   67POL     A4  154   1.172   2.150   1.437 -0.1755  0.5025 -0.7943
   67POL     A5  155   1.105   2.057   1.527  0.7421 -1.1106  0.7516
   67POL     A6  156   1.175   1.933   1.486 -0.3048  0.1159 -1.0923
   67POL     A7  157   1.317   1.924   1.522  0.8888  0.2631  1.1686
   67POL     A8  158   1.345   1.943   1.670  0.3994  0.9079 -0.5634
   68POL     A1  159   1.582   0.765   0.597  1.0159  0.2643  0.4578
   68POL     A2  160   1.445   0.733   0.663  0.7729  0.4385  0.2670
   68POL     A3  161   1.409   0.589   0.670  0.5161 -0.1973 -0.2591
   68POL     A4  162   1.333   0.592   0.539 -0.5100 -0.2337 -1.5422
   68POL     A5  163   1.202   0.517   0.533  0.4675 -0.5606 -0.4438
   68POL     A6  164   1.103   0.613   0.559  2.0136 -0.1002  0.4652
   68POL     A7  165   1.131   0.709   0.672  0.6279 -0.6147 -0.8520
   68POL     A8  166   1.164   0.636   0.795 -0.4525 -0.2797 -0.2160
   69POL     A1  167   1.693   0.711   2.073  0.1063  0.5799  0.2438
   69POL     A2  168   1.719   0.591   2.168  0.8435  0.1597  0.5406
   69POL     A3  169   1.634   0.470   2.131  1.1178 -0.3233 -0.7201
   69POL     A4  170   1.488   0.481   2.135  0.1890  0.2076 -0.0811
   69POL     A5  171   1.400   0.454   2.245 -0.7667  0.1493 -0.0558
   69POL     A6  172   1.399   0.545   2.351  0.0183  0.2857 -0.7307
   69POL     A7  173   1.518   0.514   2.441 -0.4237 -0.5802 -1.2711
   69POL     A8  174   1.591   0.384   2.428 -0.4930 -0.0003 -0.3794
   70POL     A1  175   2.176   1.143   1.693 -0.0124 -0.5702 -1.4812
   70POL     A2  176   2.206   1.034   1.794 -0.2388  0.2276  0.5541
   70POL     A3  177   2.133   1.026   1.939  0.5181 -0.8148  1.0979
   70POL     A4  178   2.202   0.953   2.044  0.4919  1.2440  1.4054
   70POL     A5  179   2.279   1.059   2.120 -0.2383  0.8321 -1.1872
   70POL     A6  180   2.398   1.002   2.042 -0.7355  0.6813  1.2512
   70POL     A7  181   2.478   1.075   1.942  0.5927  0.2721 -0.5850
   70POL     A8  182   2.433   1.215   1.959 -0.6598  0.1675 -0.2114
   71POL     A1  183   0.694   1.080   0.178  0.1410 -0.3694 -0.0406
   71POL     A2  184   0.748   1.050   0.306 -0.0363  0.3175 -0.7763
   71POL     A3  185   0.677   1.085   0.436  1.2529  0.1738 -0.2602
   71POL     A4  186   0.547   1.130   0.387 -0.5274  0.3122  0.4186
   71POL     A5  187   0.494   1.248   0.455 -1.2065  0.5410  0.5472
   71POL     A6  188   0.417   1.168   0.556  0.4404 -0.7499 -0.1891
   71POL     A7  189   0.297   1.236   0.594  0.7753  0.3972  1.5243
   71POL     A8  190   0.258   1.316   0.452  0.3583 -0.0386 -0.9360
   72POL     A1  191   1.102   1.132   1.789  0.2499 -0.8841 -0.5331
   72POL     A2  192   0.974   1.162   1.739  0.0723 -0.1047  0.4204
   72POL     A3  193   0.975   1.127   1.594 -1.2181 -1.5674 -0.7651
   72POL     A4  194   1.009   1.235   1.497  1.4513 -1.1196  0.6425
   72POL     A5  195   0.972   1.194   1.365  1.1461 -0.2383  0.3278
   72POL     A6  196   0.936   1.057   1.344 -0.2296 -0.0159  0.3401
   72POL     A7  197   1.039   0.951   1.325  0.5321  0.2163  0.4180
   72POL     A8  198   1.042   0.886   1.189 -0.0428 -0.1742 -0.1551
   73POL     A1  199   1.464   1.518   1.733 -1.2349  0.8212 -0.9252
   73POL     A2  200   1.336   1.516   1.657  0.1677 -0.2742  0.1418
   73POL     A3  201   1.319   1.566   1.528  0.1810 -0.7426 -0.3902
   73POL     A4  202   1.189   1.632   1.503 -0.8766 -0.3706 -0.2717
   73POL     A5  203   1.154   1.740   1.598 -0.4597  0.3379  0.6977
   73POL     A6  204   1.078   1.670   1.707 -0.1498 -0.3819 -0.7532
   73POL     A7  205   0.970   1.727   1.780  1.1911  0.4776 -0.2717
   73POL     A8  206   0.986   1.864   1.832  0.1744  1.0384 -0.0467
   74POL     A1  207   2.181   0.894   1.310 -0.4847  1.1549  0.9486
   74POL     A2  208   2.272   1.020   1.321 -0.3189  0.0469 -0.9693
   74POL     A3  209   2.350   1.060   1.212  0.3954  0.1094  1.3658
   74POL     A4  210   2.335   1.200   1.166  0.3263  0.3883 -0.6144
   74POL     A5  211   2.212   1.288   1.184 -0.9286 -0.2805  0.8168
   74POL     A6  212   2.182   1.355   1.060 -1.3493  0.2411  0.8343
   74POL     A7  213   2.273   1.477   1.020  0.5693  1.1534  0.0736
   74POL     A8  214   2.406   1.420   0.976  1.3208 -0.2821 -1.0630
   75POL     A1  215   1.045   1.508   0.493  0.0256 -0.3681 -1.0604
   75POL     A2  216   1.002   1.462   0.358  0.0371  0.2204  0.1214
   75POL     A3  217   0.927   1.325   0.348  0.9335 -0.0967  0.4723
   75POL     A4  218   0.778   1.363   0.332 -1.0041 -1.0028 -0.0703
   75POL     A5  219   0.751   1.433   0.200  0.6068  0.6265 -1.0293
   75POL     A6  220   0.700   1.349   0.092  1.2103  0.4189  0.5573
   75POL     A7  221   0.774   1.257  -0.004 -1.0734 -0.9298 -0.0059
   75POL     A8  222   0.897   1.320  -0.076 -0.3626 -1.1149  0.0336
   76POL     A1  223   1.567   1.483   0.636  0.0227  1.3699  0.7194
   76POL     A2  224   1.583   1.570   0.749 -0.5251 -0.1387  0.1534
   76POL     A3  225   1.533   1.719   0.741  0.5783  1.2490 -0.2247
   76POL     A4  226   1.387   1.718   0.676 -0.1937 -0.0590  0.0616
   76POL     A5  227   1.417   1.766   0.536  1.0921  0.2452  0.3363
   76POL     A6  228   1.318   1.854   0.461 -0.0010 -0.4208  0.8203
   76POL     A7  229   1.327   2.012   0.441 -0.7170  0.6773 -0.6192
   76POL     A8  230   1.222   2.058   0.351  0.1465  0.4282 -0.9722
   77POL     A1  231   1.456   2.151   0.979  1.2118 -0.1277 -1.0362
   77POL     A2  232   1.338   2.138   1.079  0.0152 -0.6734  0.6952
   77POL     A3  233   1.249   2.019   1.053  0.2926 -0.5370 -0.3371
   77POL     A4  234   1.288   1.919   1.159 -0.4390  0.6085 -0.5180
   77POL     A5  235   1.146   1.856   1.151 -0.5264 -0.3173  0.8373
   77POL     A6  236   1.145   1.756   1.036  0.2153 -0.2510 -0.1753
   77POL     A7  237   1.213   1.630   1.048 -0.7418  0.0499  1.1340
   77POL     A8  238   1.346   1.630   0.969 -0.3024 -0.0129 -0.9518
   78POL     A1  239   0.367   0.878   1.577  1.0916  1.4252  0.4242
   78POL     A2  240   0.280   0.966   1.644  0.8843  0.5899 -0.4011
   78POL     A3  241   0.229   0.919   1.773  0.1454  0.0792  0.3570
   78POL     A4  242   0.141   0.801   1.778 -1.1807 -0.5503  0.2171
   78POL     A5  243   0.190   0.691   1.700  0.1017  0.3258  0.4229
   78POL     A6  244   0.242   0.575   1.771 -0.0284  0.6085 -1.0331
   78POL     A7  245   0.106   0.502   1.810  0.6810  0.0593  2.0030
   78POL     A8  246   0.057   0.450   1.674 -1.6525  1.3573  1.3049
   79POL     A1  247   1.048   1.009   0.343 -0.9634  0.7141 -0.2499
   79POL     A2  248   1.105   1.137   0.307 -0.0357 -0.0997  1.6654
   79POL     A3  249   1.234   1.101   0.218 -0.8213  0.4550 -0.6010
   79POL     A4  250   1.213   0.988   0.111 -0.1017  0.1601  0.8132
   79POL     A5  251   1.278   1.033  -0.020 -1.1440 -0.7484  0.9941
   79POL     A6  252   1.412   1.105  -0.002  1.0559  0.4598 -0.7916
   79POL     A7  253   1.509   1.051   0.091  0.8492 -1.8216 -2.2020
   79POL     A8  254   1.537   1.154   0.192  0.3056  0.2596  0.5394
   80POL     A1  255   1.668   0.017   1.633  0.3421  0.1791 -0.1167
   80POL     A2  256   1.601  -0.111   1.681 -1.2928  0.2913 -0.0442
   80POL     A3  257   1.693  -0.237   1.686 -0.3239  0.3316 -0.1339
   80POL     A4  258   1.677  -0.264   1.827  0.2783  0.0618  0.4073
   80POL     A5  259   1.552  -0.332   1.834  1.2885 -0.7067  0.8020
   80POL     A6  260   1.493  -0.316   1.974 -0.3368  0.2611 -0.6282
   80POL     A7  261   1.368  -0.241   1.979  0.6616 -0.2418 -1.0580
   80POL     A8  262   1.356  -0.134   1.869  0.3817 -0.1769  0.5672
   81POL     A1  263   1.338   0.085   1.633  1.2458  0.5420 -0.4125
   81POL     A2  264   1.452   0.126   1.727  0.5543  0.0216  0.4567
   81POL     A3  265   1.494   0.277   1.712 -0.1993 -0.3852  0.4825
   81POL     A4  266   1.357   0.343   1.740 -0.1690  0.3976 -0.6869
   81POL     A5  267   1.361   0.366   1.894 -0.6548 -0.9115  0.4659
   81POL     A6  268   1.344   0.517   1.935  0.2928 -0.4589 -0.6470
   81POL     A7  269   1.400   0.615   1.847 -1.0865 -0.1969  0.3603
   81POL     A8  270   1.552   0.613   1.835 -0.1154 -0.5651 -0.3463
   2.20000   2.20000   2.20000
