tp1_5b_dense_routed
    4
    1SYS     A1    1   2.112   0.927   1.608 -1.1784 -0.7267  1.7032
    1SYS     A2    2   1.068   0.897   1.039  0.9430 -0.2135  0.0515
    1SYS     A3    3   1.766   0.881   0.355  0.0778 -0.1197 -0.6551
    1SYS     A4    4   2.323   1.295   0.998  0.1577  1.0599 -1.0996
   2.50000   2.50000   2.50000
