dense_salt_polymer
  270
    1POL     A1    1   1.170   0.280   0.332  0.0271  0.5795  2.0213
    1POL     A2    2   1.035   0.277   0.252  0.2323 -0.3025  0.0978
    1POL     A3    3   0.944   0.163   0.251  0.9287 -0.3989 -0.3611
    1POL     A4    4   0.899   0.109   0.388 -0.3134  0.3500 -0.5908
    1POL     A5    5   0.992   0.021   0.461  0.2370 -0.6025  0.1647
    1POL     A6    6   0.984   0.019   0.610  0.6076 -0.7873 -0.1870
    1POL     A7    7   0.881  -0.077   0.631  1.4624  0.6570 -0.4138
    1POL     A8    8   0.784  -0.117   0.532  0.7960  0.0272  0.3941
    2POL     A1    9   0.815   1.215   1.967 -0.4931 -1.1520  1.3956
    2POL     A2   10   0.871   1.344   2.031  0.9998  1.2267 -0.8333
    2POL     A3   11   0.813   1.344   2.174 -1.2094  0.1582  0.8419
    2POL     A4   12   0.702   1.446   2.151  0.3424 -1.5689  0.0220
    2POL     A5   13   0.777   1.569   2.205 -0.3191  0.3134 -1.6524
    2POL     A6   14   0.774   1.678   2.119 -0.0451  0.9767  0.1046
    2POL     A7   15   0.837   1.659   1.977  2.1513 -0.1362 -0.3954
    2POL     A8   16   0.767   1.691   1.850 -0.0994  0.3029 -0.1945
    3POL     A1   17   2.199   1.747   0.429 -0.2408 -0.6481 -1.6377
    3POL     A2   18   2.109   1.860   0.394 -0.4267  0.1244  1.0523
    3POL     A3   19   1.988   1.836   0.466  0.1610 -1.4930  0.1398
    3POL     A4   20   1.956   1.957   0.554 -0.2254  0.1729 -0.6123
    3POL     A5   21   2.085   2.045   0.571 -0.5072  0.1512 -1.5623
    3POL     A6   22   2.175   1.958   0.653  0.6388 -0.7204 -0.4609
    3POL     A7   23   2.098   1.920   0.765  0.5003  0.2587  0.2165
    3POL     A8   24   2.022   1.806   0.745 -0.5875  0.3767 -0.4456
    4POL     A1   25   1.160   0.839   1.507  0.5755  0.3909 -0.7284
    4POL     A2   26   1.279   0.925   1.532 -0.2300  0.3975 -0.2795
    4POL     A3   27   1.370   0.960   1.423 -0.1455 -0.0188  0.8898
    4POL     A4   28   1.411   0.827   1.384 -0.2031 -0.1294  0.2875
    4POL     A5   29   1.324   0.747   1.278 -0.4025  0.0265  1.7001
    4POL     A6   30   1.249   0.860   1.211  0.4147 -0.0222 -0.2935
    4POL     A7   31   1.332   0.953   1.131 -0.8869  0.4209 -0.7485
    4POL     A8   32   1.472   0.905   1.089  0.1712 -0.4000  0.6032
    5POL     A1   33   0.181   1.091   0.859 -0.5942 -1.7164 -0.3916
    5POL     A2   34   0.231   1.232   0.863 -0.1478 -1.1150 -0.5990
    5POL     A3   35   0.107   1.322   0.889 -0.5878 -0.1132 -0.0554
    5POL     A4   36   0.005   1.236   0.951 -0.1093 -0.2054  0.5898
    5POL     A5   37   0.025   1.228   1.091 -0.5295 -1.1209  0.6969
    5POL     A6   38  -0.013   1.360   1.152 -0.2099 -0.2231  0.0997
    5POL     A7   39   0.096   1.390   1.234  1.0731 -0.5327  0.8126
    5POL     A8   40   0.186   1.487   1.156  0.0877 -0.0677  1.0620
    6POL     A1   41   0.637   1.893   0.074  1.0282  0.6401 -0.2816
    6POL     A2   42   0.581   1.975   0.186 -0.2988 -0.4902 -0.4083
    6POL     A3   43   0.505   1.874   0.252 -0.5558  1.0387  0.6792
    6POL     A4   44   0.604   1.850   0.364  0.1239 -0.1746  1.0051
    6POL     A5   45   0.728   1.787   0.313  1.3351  0.3243 -0.2958
    6POL     A6   46   0.689   1.648   0.257  0.1787 -0.0535  1.0153
    6POL     A7   47   0.759   1.539   0.332  1.1902 -0.3287  0.6812
    6POL     A8   48   0.884   1.592   0.362  0.4743  0.8289 -0.2615
    7POL     A1   49   1.578   0.297   0.616  0.6727  0.0265 -1.8980
    7POL     A2   50   1.573   0.265   0.757  0.6510 -0.5960  0.0881
    7POL     A3   51   1.572   0.129   0.817  1.1661  0.4700  0.3918
    7POL     A4   52   1.430   0.079   0.809 -0.1572  0.5697  0.2172
    7POL     A5   53   1.335   0.114   0.923 -0.4173  0.5587  0.2329
    7POL     A6   54   1.330   0.007   1.020 -0.4589  0.7148 -0.5442
    7POL     A7   55   1.378   0.033   1.163 -1.1304 -0.0796  0.7861
    7POL     A8   56   1.346   0.178   1.198 -1.2439  0.2033  0.9945
    8POL     A1   57   1.261   1.509   1.049  0.3475 -0.3347 -0.4125
    8POL     A2   58   1.304   1.400   1.132  0.0744  0.3199  0.8360
    8POL     A3   59   1.303   1.261   1.059  0.6649 -0.4674 -1.6425
    8POL     A4   60   1.263   1.297   0.917  0.2430 -0.2255 -0.3629
    8POL     A5   61   1.375   1.285   0.827  0.3194 -0.6834  0.2819
    8POL     A6   62   1.488   1.386   0.840  0.4102  0.1838 -0.6199
    8POL     A7   63   1.542   1.454   0.704 -0.5666 -0.3409 -0.4204
    8POL     A8   64   1.492   1.365   0.603  1.0075  0.8007  0.7323
    9POL     A1   65   0.221   1.595   0.707 -1.1337  0.5376 -0.4375
    9POL     A2   66   0.206   1.654   0.838 -0.0438  0.3171 -0.7482
    9POL     A3   67   0.307   1.761   0.864 -0.4340  1.0462 -1.5647
    9POL     A4   68   0.430   1.759   0.928  0.0742  0.4534  0.3796
    9POL     A5   69   0.513   1.631   0.883 -0.5237  0.0344 -0.6687
    9POL     A6   70   0.637   1.648   0.793 -1.2689  0.2961  0.0519
    9POL     A7   71   0.615   1.535   0.705 -0.8246 -0.6186 -0.2778
    9POL     A8   72   0.567   1.419   0.772 -0.9234 -0.0590 -0.1773
   10POL     A1   73   2.050   1.496   0.537 -0.6769  0.2597 -0.7329
   10POL     A2   74   2.069   1.472   0.389 -0.5214 -1.0942  0.3024
   10POL     A3   75   2.113   1.341   0.337 -0.8400  1.0556  0.0074
   10POL     A4   76   2.109   1.230   0.429  0.4202  0.4011 -0.5873
   10POL     A5   77   2.248   1.208   0.470  0.5309  0.1443  0.4294
   10POL     A6   78   2.281   1.182   0.611  0.7665 -0.0423 -0.8848
   10POL     A7   79   2.348   1.057   0.606 -1.1956  0.2049  0.7433
   10POL     A8   80   2.444   1.049   0.501 -0.3307 -0.0804  0.5975
   11POL     A1   81   0.571   0.456   0.833  0.7214 -0.3666  0.1551
   11POL     A2   82   0.701   0.536   0.851 -0.3137  0.5776 -1.2759
   11POL     A3   83   0.768   0.546   0.712  1.0839  0.2064  0.8962
   11POL     A4   84   0.704   0.639   0.610  0.7748 -0.9662  0.3819
   11POL     A5   85   0.811   0.737   0.629  0.1893 -1.4190  0.4868
   11POL     A6   86   0.825   0.820   0.755 -0.0826  0.3967  0.0607
   11POL     A7   87   0.886   0.952   0.719 -0.1511 -0.4410  0.6119
   11POL     A8   88   0.771   1.037   0.764  0.9092 -0.1362 -0.3023
   12POL     A1   89   0.331   1.018   1.186  0.4893  0.6695  0.5633
   12POL     A2   90   0.474   0.993   1.146 -1.0811 -0.2237  0.5167
   12POL     A3   91   0.503   0.850   1.146  0.7269  0.9197 -2.1633
   12POL     A4   92   0.420   0.778   1.237  0.7957 -1.0216  0.0679
   12POL     A5   93   0.508   0.706   1.339  0.7303  0.2153 -0.8403
   12POL     A6   94   0.647   0.713   1.321  0.6793  0.0257 -0.0086
   12POL     A7   95   0.715   0.583   1.271  0.5057  0.6248  0.3487
   12POL     A8   96   0.628   0.468   1.319 -1.6114 -0.6911 -0.9142
   13CAT     A1   97   1.365   0.192   0.102 -0.8455 -0.7983  0.2328
   14CAT     A1   98   1.743   0.278   0.187 -0.2189 -0.1914  0.3485
   15CAT     A1   99   1.522   0.468   0.114  0.2612  0.3154  0.2038
   16CAT     A1  100   1.245   0.238   1.800  0.4841 -0.3765  0.3331
   17CAT     A1  101   0.045   0.328   1.890 -0.9456  0.2749  1.0265
   18CAT     A1  102   2.147   2.178   1.929  0.4801  0.1613 -0.1114
   19CAT     A1  103   0.952   0.151   1.987 -0.2681  0.5532 -0.3255
   20CAT     A1  104   0.541   0.286   1.541  0.6980 -0.9410  0.1821
   21CAT     A1  105   0.799   0.395   1.930 -0.1393  0.2520 -0.0873
   22CAT     A1  106   0.258   0.163   1.777 -0.1064 -0.3110  0.1120
   23CAT     A1  107   0.690   0.528   1.687 -0.9347 -0.3854  0.2648
   24CAT     A1  108   0.884   0.224   1.701 -0.5203  0.6873 -0.2322
   25CAT     A1  109   0.390   0.422   1.745  0.6864 -0.2142  0.1201
   26CAT     A1  110   1.770   0.477   2.199 -0.2166 -0.3728 -0.5363
   27CAT     A1  111   1.650   0.581   1.962 -0.3209  1.2691  0.4463
   28CAT     A1  112   0.616   0.222   1.800  0.0606  0.1550  0.1782
   29CAT     A1  113   1.214   0.003   2.103 -0.0526  0.0450  0.2802
   30CAT     A1  114   1.266   2.160   1.815 -0.8843  0.8891 -0.7588
   31CAT     A1  115   1.161   0.355   2.141 -0.0733  0.4165  0.3578
   32CAT     A1  116   1.458   0.403   2.011 -0.0364 -0.8322 -0.0734
   33CAT     A1  117   1.481   0.010   1.991 -0.5331 -0.1626  0.1747
   34CAT     A1  118   1.632   0.136   2.189 -0.0361  0.6047 -0.1761
   35CAT     A1  119   1.083   0.480   1.804  1.1056 -0.3056 -0.0964
   36CAT     A1  120   1.584   0.234   1.786  0.4802 -1.2007 -0.3892
   37CAT     A1  121   1.986   0.224   2.124  0.3023  0.0475  0.3915
   38CAT     A1  122   1.832   0.066   1.996 -0.8452 -0.4799  0.1896
   39CAT     A1  123   1.865   0.382   1.878 -0.3196 -0.4515 -0.4187
   40ANI     A1  124   1.590   0.532   2.135  0.2562  0.1991  0.4257
   41ANI     A1  125   1.476   0.205   2.093 -0.1543 -0.1541 -0.6758
   42ANI     A1  126   1.575   0.160   0.167 -0.7071  0.4126  0.7087
   43ANI     A1  127   2.025   0.033   2.073 -0.3643 -0.3947  0.5536
   44ANI     A1  128   1.695   0.470   0.200  0.2332 -0.2397  0.5207
   45ANI     A1  129   1.593   0.413   1.868 -0.0130 -0.1838  0.0275
   46ANI     A1  130   1.329   0.382   0.086 -0.8506  0.3164  0.3801
   47ANI     A1  131   0.232   0.356   1.858  0.4560 -1.0858  0.1215
   48ANI     A1  132   0.506   0.483   1.593  0.9540  0.3881 -0.3042
   49ANI     A1  133   1.140   0.083   1.914  0.7027 -0.3412  0.1624
   50ANI     A1  134   2.045   0.345   1.940  0.1323 -0.3270  0.1322
   51ANI     A1  135   0.598   0.412   1.850  0.4954 -0.5985 -0.2986
   52ANI     A1  136   0.708   0.216   1.627 -0.0299 -0.0535  0.4419
   53ANI     A1  137   0.792   0.208   1.902  0.5397  0.0704  0.4314
   54ANI     A1  138   1.832   0.546   1.994  0.5561  0.0863  0.0382
   55ANI     A1  139   1.776   0.188   1.868  0.4897 -0.1727 -0.1916
   56ANI     A1  140   0.085   0.113   1.862 -0.3325  0.2169 -0.3644
   57ANI     A1  141   0.410   0.199   1.667  0.0085 -0.5253  0.3316
   58ANI     A1  142   1.072   0.291   1.734  0.1135 -0.4126 -0.1686
   59ANI     A1  143   1.178   0.159   0.027  0.4886  0.5203 -0.2524
   60ANI     A1  144   1.316   2.096   1.995 -0.1193  0.6049 -0.2317
   61ANI     A1  145   0.886   0.514   1.759 -0.1508  0.2275  0.2456
   62ANI     A1  146   1.281   0.420   1.910  0.2866 -0.3795  0.5619
   63ANI     A1  147   1.819   0.276   0.012 -0.1324  0.1077  0.5635
   64ANI     A1  148   1.679   2.162   2.077  0.1406  0.3271 -0.1763
   65ANI     A1  149   1.424   0.117   1.778  0.1760  0.4100  0.4102
   66ANI     A1  150   0.982   0.352   2.034 -0.2839  0.6599  1.0364
   67POL     A1  151   1.791   1.562   1.651  1.3601 -0.8430  0.4655
   67POL     A2  152   1.809   1.427   1.717  0.0783 -0.1131  0.1572
   67POL     A3  153   1.710   1.397   1.828 -0.0295 -0.3107  0.4038
   67POL     A4  154   1.588   1.336   1.747  0.1200 -0.6502  0.5499
   67POL     A5  155   1.513   1.450   1.691 -0.9291  0.8274 -0.6725
   67POL     A6  156   1.547   1.494   1.556 -0.5543  1.1362  0.3115
   67POL     A7  157   1.538   1.377   1.469 -0.2153  0.3234 -0.6611
   67POL     A8  158   1.644   1.275   1.478  0.8804 -0.1607 -0.3318
   68POL     A1  159   1.443   0.879   0.198  0.8601  0.9100  0.6397
   68POL     A2  160   1.437   0.765   0.108 -0.5508  0.3412 -0.3345
   68POL     A3  161   1.295   0.769   0.082 -0.2168  0.0014 -0.6455
   68POL     A4  162   1.263   0.844  -0.030 -0.0267  0.4208 -0.2735
   68POL     A5  163   1.386   0.839  -0.119 -0.3366  0.6754  1.2722
   68POL     A6  164   1.445   0.953  -0.198  0.8458 -0.0668 -0.1384
   68POL     A7  165   1.486   1.065  -0.104 -1.0425 -0.1086 -0.5865
   68POL     A8  166   1.396   1.081   0.007  0.7665  0.5730 -0.2290
   69POL     A1  167   0.591   1.943   0.958 -0.5955 -0.1222 -0.3569
   69POL     A2  168   0.666   2.003   1.069  0.1820  0.9946 -0.3188
   69POL     A3  169   0.733   2.128   1.050  0.8869  0.8153 -1.8404
   69POL     A4  170   0.733   2.145   0.912 -0.7392 -0.0374  0.3066
   69POL     A5  171   0.679   2.267   0.848 -1.2091  0.4898 -0.1544
   69POL     A6  172   0.638   2.387   0.917  0.8880  1.9161  0.6111
   69POL     A7  173   0.501   2.341   0.981 -0.7558  1.1085 -0.1220
   69POL     A8  174   0.520   2.359   1.122 -0.8923 -0.6083 -0.1200
   70POL     A1  175   1.677   1.387   0.165  0.3356 -0.0083  0.1961
   70POL     A2  176   1.694   1.493   0.062  0.0643  1.6534  0.7733
   70POL     A3  177   1.720   1.628   0.128 -0.1181  0.9001  0.2131
   70POL     A4  178   1.851   1.643   0.203  0.9914  0.6146 -0.1329
   70POL     A5  179   1.959   1.708   0.135  0.4128 -0.4451 -1.0423
   70POL     A6  180   2.045   1.601   0.086 -0.3480  0.0402 -0.2377
   70POL     A7  181   2.046   1.603  -0.062 -0.1552 -0.0525 -0.5527
   70POL     A8  182   1.978   1.729  -0.121  0.1544 -1.5610  0.6707
   71POL     A1  183   1.939   0.586   1.769  0.9884 -0.4056 -0.5229
   71POL     A2  184   1.912   0.502   1.649  1.4370 -0.3259 -0.1755
   71POL     A3  185   1.811   0.563   1.561  0.7749  0.5496  0.1184
   71POL     A4  186   1.696   0.656   1.613 -1.1858  0.9168 -1.5221
   71POL     A5  187   1.566   0.620   1.530 -0.1615 -0.0197  0.1886
   71POL     A6  188   1.477   0.545   1.632  0.0210 -0.9797 -0.2053
   71POL     A7  189   1.434   0.639   1.730 -0.4752 -0.0624  0.7595
   71POL     A8  190   1.443   0.786   1.709  0.3117  0.6716 -0.6468
   72POL     A1  191   0.891   0.518   0.152  1.1360 -0.2941  0.4287
   72POL     A2  192   0.786   0.621   0.185  0.8667  0.2910 -0.1614
   72POL     A3  193   0.679   0.556   0.278  0.6268  0.2218  0.4683
   72POL     A4  194   0.566   0.532   0.187 -1.1053  1.0884  0.2876
   72POL     A5  195   0.510   0.398   0.213 -0.0800 -0.7366 -0.2289
   72POL     A6  196   0.486   0.364   0.062 -0.4834 -0.1266 -0.4139
   72POL     A7  197   0.588   0.275   0.009 -0.5893 -0.4027 -0.1578
   72POL     A8  198   0.579   0.153   0.104 -0.3317 -0.0993 -0.0270
   73POL     A1  199   1.891   1.158   1.441 -0.3416 -0.4008 -1.6946
   73POL     A2  200   1.850   1.082   1.556  0.1478  0.5180 -0.4493
   73POL     A3  201   1.853   0.946   1.515 -0.7000 -0.2706 -0.2557
   73POL     A4  202   1.798   0.958   1.382 -0.6064  0.1678 -0.5901
   73POL     A5  203   1.878   0.878   1.281  0.3612 -0.0552  0.7327
   73POL     A6  204   2.007   0.954   1.262 -0.3281  0.2751 -1.5068
   73POL     A7  205   2.127   0.867   1.223  0.8558  0.7902 -0.6559
   73POL     A8  206   2.104   0.845   1.073  1.9722  0.5083 -0.4312
   74POL     A1  207   0.028   1.199   2.177 -0.5529 -0.3891  0.1233
   74POL     A2  208  -0.117   1.178   2.186 -0.9217 -0.7836 -0.1603
   74POL     A3  209  -0.147   1.087   2.304  0.3146 -0.4603 -0.4370
   74POL     A4  210  -0.092   0.954   2.285 -0.5457 -0.1989  0.3849
   74POL     A5  211  -0.154   0.855   2.169 -0.5767  0.0084  0.6117
   74POL     A6  212  -0.057   0.827   2.065 -0.1560 -0.0877  0.4583
   74POL     A7  213   0.012   0.711   2.105 -0.3862  0.9751  0.7452
   74POL     A8  214   0.063   0.735   2.242 -0.1728  1.4032  0.7989
   75POL     A1  215   0.088   2.018   0.023  0.4528 -0.1553 -0.0870
   75POL     A2  216   0.203   2.064  -0.062  0.2921  0.6986 -0.0436
   75POL     A3  217   0.200   1.981  -0.187 -0.1237  0.6673 -0.2484
   75POL     A4  218   0.060   1.998  -0.250  0.1100 -0.8363 -0.0218
   75POL     A5  219   0.076   2.042  -0.398 -0.0730  0.6389 -1.1802
   75POL     A6  220  -0.042   1.987  -0.483 -0.1305 -0.1208  0.0174
   75POL     A7  221   0.026   1.876  -0.539 -0.8793  0.2773 -0.2111
   75POL     A8  222   0.082   1.777  -0.450 -0.6109  0.5235  0.7544
   76POL     A1  223   1.915   0.658   0.540  0.2037 -0.6233  0.5889
   76POL     A2  224   1.873   0.744   0.644  0.2636 -0.2132  0.0774
   76POL     A3  225   1.884   0.671   0.772 -0.5277 -0.0028 -0.7926
   76POL     A4  226   1.918   0.523   0.774  0.8769 -1.1199  0.2762
   76POL     A5  227   1.812   0.438   0.838  0.7280 -0.8242 -0.1769
   76POL     A6  228   1.705   0.509   0.925 -0.3088 -0.0246  0.3949
   76POL     A7  229   1.624   0.636   0.903 -0.9620 -0.2189  0.2740
   76POL     A8  230   1.705   0.755   0.942 -1.0914  0.1718 -1.2974
   77POL     A1  231   1.168   1.547   1.991 -0.4633 -0.2931 -0.1504
   77POL     A2  232   1.251   1.589   2.096 -1.7069  0.2504 -0.8060
   77POL     A3  233   1.304   1.490   2.199  0.7085 -0.4296 -1.3829
   77POL     A4  234   1.278   1.545   2.330  0.2181 -1.4369  0.3907
   77POL     A5  235   1.365   1.651   2.377 -0.3296 -0.6532 -0.3114
   77POL     A6  236   1.509   1.615   2.406  0.0947 -0.6874  0.2279
   77POL     A7  237   1.544   1.614   2.557  0.6344 -0.5003 -0.8262
   77POL     A8  238   1.436   1.610   2.656 -0.4378  0.9595 -0.8069
   78POL     A1  239   1.299   1.172   0.485 -0.3738  0.0018 -0.5530
   78POL     A2  240   1.308   1.091   0.353 -0.7463 -0.8462  0.0777
   78POL     A3  241   1.163   1.066   0.315  0.3590 -0.0243 -0.8547
   78POL     A4  242   1.065   1.167   0.253 -0.6537  0.6012  0.5486
   78POL     A5  243   1.042   1.183   0.112 -0.5466  0.6433 -0.4166
   78POL     A6  244   0.941   1.097   0.045 -0.5571 -0.3270 -1.1139
   78POL     A7  245   0.872   1.011   0.147 -0.4138 -0.3560  0.0298
   78POL     A8  246   0.790   1.100   0.228 -0.8164 -0.2392  1.3134
   79POL     A1  247   0.242   1.258   1.489 -0.3293 -0.9603 -0.4765
   79POL     A2  248   0.106   1.233   1.563  0.0566 -0.0718 -0.3244
   79POL     A3  249   0.044   1.360   1.630  0.4235  0.0315  1.8458
   79POL     A4  250   0.153   1.400   1.718  0.5105  1.0092  0.5876
   79POL     A5  251   0.114   1.358   1.855 -0.3897 -0.3526  1.3856
   79POL     A6  252   0.182   1.224   1.858  0.5957 -0.4077 -1.0343
   79POL     A7  253   0.292   1.217   1.944  0.9389 -1.0045 -1.4524
   79POL     A8  254   0.248   1.209   2.094 -0.4891 -0.4910  0.7610
   80POL     A1  255   0.550   1.476   1.574  0.2419 -0.5237 -1.8860
   80POL     A2  256   0.636   1.603   1.554 -0.1752  0.1822  0.2661
   80POL     A3  257   0.559   1.721   1.512 -0.0975  0.3274 -0.2836
   80POL     A4  258   0.432   1.721   1.594  0.1825  0.1967  0.1978
   80POL     A5  259   0.441   1.809   1.713 -0.3060 -0.3905  0.8518
   80POL     A6  260   0.535   1.928   1.691 -0.1219  0.4114 -0.7263
   80POL     A7  261   0.464   2.041   1.757 -0.4097  0.2111  0.0654
   80POL     A8  262   0.329   2.082   1.697  0.6971  0.6355 -0.3778
   81POL     A1  263   0.545   0.048   0.539 -0.0190  0.2829 -0.0830
   81POL     A2  264   0.401   0.044   0.587 -1.2367 -0.1254  0.0956
   81POL     A3  265   0.303   0.086   0.485 -0.9011  0.0217 -0.0899
   81POL     A4  266   0.307   0.229   0.469 -0.7898  1.1333 -0.2232
   81POL     A5  267   0.374   0.248   0.338  0.2156 -0.4044  0.3581
   81POL     A6  268   0.247   0.226   0.263  0.0418 -1.2028 -0.3530
   81POL     A7  269   0.179   0.358   0.225  0.4809  0.0602  0.5160
   81POL     A8  270   0.186   0.488   0.298 -0.4315  0.0800  0.8373
   2.20000   2.20000   2.20000
