[ defaults ]
; nbfunc comb-rule gen-pairs fudgeLJ fudgeQQ rep-pow
1 4 yes 1.0 1.0 9.0

[ atomtypes ]
; name mass charge ptype sigma epsilon
A 12.011 0.0 A 0.34 0.20
B 12.011 0.0 A 0.40 0.10

[ moleculetype ]
; name nrexcl
MOL 1

[ atoms ]
; nr type resnr residue atom cgnr charge mass
1 A 1 MOL A1 1 0.0 12.011
2 B 1 MOL B1 1 0.0 12.011

[ system ]
TP1.4 mixed-type 9-6 LJ-PME

[ molecules ]
MOL 1
