dense_salt_polymer
  270
    1POL     A1    1   0.443   2.164   1.817  0.3092 -0.6575  0.0490
    1POL     A2    2   0.351   2.269   1.757  0.0581  0.1140 -0.9245
    1POL     A3    3   0.315   2.335   1.895  0.3397 -0.1604  0.5443
    1POL     A4    4   0.420   2.393   1.968  0.3448 -0.8105 -0.3031
    1POL     A5    5   0.380   2.539   1.943 -1.0164 -0.0990 -1.1713
    1POL     A6    6   0.440   2.564   1.817 -0.6348  0.5538 -0.1803
    1POL     A7    7   0.556   2.659   1.778 -0.1511  0.0279 -0.5943
    1POL     A8    8   0.619   2.647   1.916  0.3338 -0.7049  0.0068
    2POL     A1    9   1.605   1.808   0.174 -0.5155 -0.2860 -0.5018
    2POL     A2   10   1.624   1.857   0.322  0.2044 -1.0226 -0.1712
    2POL     A3   11   1.655   1.994   0.339 -0.5359 -0.4931 -1.2079
    2POL     A4   12   1.792   2.032   0.395  0.5209  0.2999 -0.3364
    2POL     A5   13   1.832   2.062   0.541  0.5501  0.5072  0.8400
    2POL     A6   14   1.811   1.966   0.655  0.5126  0.2090 -0.1469
    2POL     A7   15   1.896   1.863   0.720 -0.1452  0.6676  0.0275
    2POL     A8   16   1.853   1.727   0.680  0.4701 -0.1203 -1.3549
    3POL     A1   17   1.245   1.914   1.698 -0.9115  0.0484 -0.3349
    3POL     A2   18   1.231   2.059   1.670  0.9248 -0.3738 -0.5626
    3POL     A3   19   1.339   2.147   1.616  0.1390  1.2466  0.2548
    3POL     A4   20   1.468   2.110   1.700  0.0138 -1.1506 -0.4349
    3POL     A5   21   1.479   2.212   1.810 -0.9487  0.0705 -0.0740
    3POL     A6   22   1.482   2.360   1.787  0.8411  0.5408  0.7326
    3POL     A7   23   1.439   2.408   1.931  0.9130  0.4113 -0.2964
    3POL     A8   24   1.425   2.289   2.023  1.7094 -0.4040  0.5430
    4POL     A1   25   0.995   0.986   1.072  0.5371  0.2121  0.4122
    4POL     A2   26   0.986   0.854   1.005  1.5635 -0.6124  0.6889
    4POL     A3   27   0.945   0.738   1.081 -0.3383 -0.3958 -0.7605
    4POL     A4   28   1.020   0.631   1.022  0.7730  0.6321  0.0880
    4POL     A5   29   0.973   0.535   0.915  1.9066  1.1263  0.9301
    4POL     A6   30   1.067   0.524   0.786  0.2478 -1.0680  0.8957
    4POL     A7   31   0.985   0.565   0.678  0.6333  0.7441  0.6274
    4POL     A8   32   0.928   0.433   0.642  0.2684  0.4656  0.4421
    5POL     A1   33   1.599   0.726   1.324 -0.8044 -0.3051  0.6673
    5POL     A2   34   1.528   0.605   1.265 -0.7152 -0.0306 -0.4899
    5POL     A3   35   1.459   0.665   1.131  0.2829 -0.8333  0.3563
    5POL     A4   36   1.507   0.790   1.065 -0.2149 -0.0234 -0.0589
    5POL     A5   37   1.405   0.892   1.052 -0.4754 -0.9971 -0.0255
    5POL     A6   38   1.379   0.943   0.919 -0.2870  0.5848 -0.2980
    5POL     A7   39   1.296   0.831   0.866 -1.3063 -0.3753  0.4926
    5POL     A8   40   1.244   0.762   0.996 -0.6693 -0.3153 -0.7350
    6POL     A1   41   0.789   1.908   0.508  0.8903 -0.5334 -0.8974
    6POL     A2   42   0.930   1.908   0.555 -0.8294 -0.5812  0.4168
    6POL     A3   43   1.013   2.019   0.504 -0.0109  1.0457  0.0497
    6POL     A4   44   0.965   2.148   0.560  0.7684  0.3769 -0.5601
    6POL     A5   45   1.028   2.176   0.696 -0.9073 -0.7683 -1.0501
    6POL     A6   46   1.031   2.083   0.804 -0.0873  0.1712 -0.7449
    6POL     A7   47   0.944   1.963   0.776  0.1950  0.7926 -0.3624
    6POL     A8   48   0.813   1.971   0.827 -1.6081  0.2128  1.7792
    7POL     A1   49   0.411   2.172   1.156 -0.1546  0.6502  1.7696
    7POL     A2   50   0.532   2.089   1.109  0.7869  0.3665  0.6052
    7POL     A3   51   0.587   2.071   1.247 -0.1980  0.7878 -0.7624
    7POL     A4   52   0.618   1.930   1.283 -0.2927 -0.1180 -0.3041
    7POL     A5   53   0.578   1.863   1.416  1.3915  0.1627 -0.7697
    7POL     A6   54   0.630   1.949   1.520 -0.1912  0.8632 -0.3981
    7POL     A7   55   0.545   2.063   1.563  0.2916 -0.0081  1.0962
    7POL     A8   56   0.561   2.184   1.486  0.8050  0.8866 -0.5095
    8POL     A1   57   0.632   0.961   0.554  0.1795 -0.6664 -0.3865
    8POL     A2   58   0.607   1.076   0.468  0.3581  0.9669 -0.2469
    8POL     A3   59   0.552   1.198   0.531  0.4840  0.4927  0.5693
    8POL     A4   60   0.679   1.282   0.516  0.5546 -0.0147 -0.5465
    8POL     A5   61   0.652   1.403   0.436 -0.5908 -0.2164 -0.0632
    8POL     A6   62   0.709   1.528   0.483 -1.4879  0.5083  0.1417
    8POL     A7   63   0.804   1.575   0.376 -0.7352 -1.4017 -0.4064
    8POL     A8   64   0.913   1.670   0.404 -0.9835  1.2873 -0.0972
    9POL     A1   65   1.402   0.397   0.249  0.4297 -0.7540  0.3980
    9POL     A2   66   1.269   0.372   0.197  1.0032 -0.3389 -0.6037
    9POL     A3   67   1.161   0.462   0.239 -0.0832 -0.3501 -1.2136
    9POL     A4   68   1.156   0.510   0.382  0.5600 -0.3255 -0.2846
    9POL     A5   69   1.145   0.425   0.505 -0.3425 -0.1389 -0.7772
    9POL     A6   70   1.079   0.300   0.467 -1.4318 -0.5526  0.8630
    9POL     A7   71   1.168   0.207   0.428 -0.5030  0.2140 -0.4770
    9POL     A8   72   1.290   0.164   0.499 -0.4546 -0.0414 -0.0661
   10POL     A1   73   2.112   0.610   2.128 -0.1369  0.3074  0.7288
   10POL     A2   74   1.981   0.560   2.179  0.4438 -0.6862  0.3011
   10POL     A3   75   1.914   0.438   2.129  0.1007 -0.0368  0.1061
   10POL     A4   76   1.776   0.456   2.092 -0.6338 -0.3067  0.8292
   10POL     A5   77   1.705   0.595   2.109 -0.9091  1.5338 -0.6848
   10POL     A6   78   1.809   0.684   2.178  0.7711  1.1332  0.6665
   10POL     A7   79   1.737   0.756   2.293  0.3773  0.5134  0.0178
   10POL     A8   80   1.686   0.690   2.412  0.0141  0.5307  0.0404
   11POL     A1   81   2.146   2.155   1.684 -0.9760 -1.1362  0.3998
   11POL     A2   82   2.166   2.063   1.791 -0.0806 -0.4631  0.2003
   11POL     A3   83   2.066   2.050   1.906  1.2389 -0.5714  0.2053
   11POL     A4   84   2.125   1.963   2.008  1.0570  0.3839  0.2002
   11POL     A5   85   2.082   1.820   2.028 -0.2086  0.5628 -0.3177
   11POL     A6   86   1.981   1.802   2.125  0.2634  0.4155  1.2505
   11POL     A7   87   2.038   1.692   2.225 -0.0376 -0.4107 -0.3958
   11POL     A8   88   2.185   1.729   2.255 -0.1799  0.8233  0.4750
   12POL     A1   89   0.970   0.634   2.069 -0.4704  0.4264  0.6427
   12POL     A2   90   0.966   0.488   2.084  0.0507 -0.0943  0.2108
   12POL     A3   91   0.837   0.415   2.076 -0.7367  0.4335 -0.4891
   12POL     A4   92   0.821   0.289   2.153  0.0964  0.5261 -0.3824
   12POL     A5   93   0.914   0.254   2.249  0.8606  0.2790 -0.9328
   12POL     A6   94   0.867   0.264   2.389 -0.0896  0.8467 -0.8009
   12POL     A7   95   0.806   0.388   2.399  0.2304 -1.5851 -1.1956
   12POL     A8   96   0.659   0.380   2.428  0.6961 -0.2408 -0.6679
   13CAT     A1   97   0.506   1.004   1.895  0.6679 -0.3775  0.0186
   14CAT     A1   98   0.718   0.963   2.152 -0.5143 -0.4648  0.3873
   15CAT     A1   99   0.401   1.394   2.070 -0.8135 -0.1336  0.1804
   16CAT     A1  100   0.465   1.114   2.192  1.2014  0.6346 -0.7592
   17CAT     A1  101   0.648   1.281   1.968  0.4921  0.8237 -0.4857
   18CAT     A1  102   1.276   1.080   2.004  0.3601 -0.2053  0.9725
   19CAT     A1  103   1.245   1.227   0.086  0.6081 -0.2488 -0.1215
   20CAT     A1  104   0.861   1.254   0.104  0.5466 -0.5253  0.7745
   21CAT     A1  105   0.909   1.038   1.931 -0.6472  0.3998 -0.1967
   22CAT     A1  106   1.679   1.101   2.018 -0.1738  0.3442  0.2684
   23CAT     A1  107   2.084   1.139   2.026 -0.8818  0.3529 -0.1055
   24CAT     A1  108   1.054   1.249   2.058 -0.2543 -0.3372 -0.9644
   25CAT     A1  109   0.811   1.495   2.077  0.5356  0.3761 -0.3555
   26CAT     A1  110   1.476   1.052   0.044 -0.7865 -0.1108  0.3177
   27CAT     A1  111   1.438   1.308   2.084  0.1637  0.1217 -0.5370
   28CAT     A1  112   1.875   1.064   0.087  0.7075 -0.2806 -0.2762
   29CAT     A1  113   1.649   1.227   0.110  0.9259 -0.0456  0.6963
   30CAT     A1  114   2.051   1.256   0.048 -0.3362 -0.5001 -0.7074
   31CAT     A1  115   0.110   0.845   1.936 -0.1681 -0.3433 -0.4167
   32CAT     A1  116   0.209   1.244   0.053  0.2986  0.6078 -0.4557
   33CAT     A1  117   1.834   1.327   2.031 -0.5584  0.3215  0.6477
   34CAT     A1  118   0.248   1.121   1.988 -0.4481  0.1132 -0.7792
   35CAT     A1  119   0.318   0.871   2.130 -0.5241 -0.9636  0.0543
   36CAT     A1  120   0.038   0.968   0.031 -0.0806  0.3655  1.0585
   37CAT     A1  121   1.070   0.965   0.076  1.0559  0.9239 -0.3273
   38CAT     A1  122   0.026   1.440   2.103  0.6235 -0.2610 -0.1794
   39CAT     A1  123   0.603   1.358   0.065 -0.1446 -0.0560  0.5123
   40ANI     A1  124   0.415   1.318   0.053  0.0881  0.4988  0.2722
   41ANI     A1  125   0.455   1.198   1.984  0.0361 -0.5865 -0.2750
   42ANI     A1  126   0.806   1.446   0.093  0.2585 -0.3737  0.2478
   43ANI     A1  127   0.710   1.076   1.931  0.5698 -0.0760  0.4060
   44ANI     A1  128   0.598   1.453   2.063 -0.1893  0.4631  0.5929
   45ANI     A1  129   0.874   1.320   2.025  0.1410  0.3776 -0.2276
   46ANI     A1  130   0.051   1.069   1.961  0.4631 -0.2656  0.7392
   47ANI     A1  131   0.918   0.955   2.137 -0.9620  0.6164 -0.1137
   48ANI     A1  132   0.513   0.930   2.136  0.2877  0.0940  1.0663
   49ANI     A1  133   1.448   1.255   0.091 -0.4047  0.0076 -0.2485
   50ANI     A1  134   0.669   1.170   0.045 -0.0448 -0.4594  0.0571
   51ANI     A1  135   1.093   1.084   1.941  0.1686  0.6032  0.2622
   52ANI     A1  136   1.054   1.185   0.110 -0.6966  0.3529 -0.2069
   53ANI     A1  137   1.247   1.298   2.065  0.0510  0.3890 -0.2196
   54ANI     A1  138   1.268   1.027   0.030 -0.3453 -0.1200 -0.3174
   55ANI     A1  139   1.687   1.031   0.060  1.0425  0.2453  0.3167
   56ANI     A1  140   1.456   1.078   2.030  0.1891 -0.0122 -0.1713
   57ANI     A1  141   1.874   1.102   1.992  0.1019 -0.2760  0.6089
   58ANI     A1  142   1.848   1.265   0.083 -0.5176  0.3569  0.4440
   59ANI     A1  143   1.632   1.321   2.048  0.2691  0.6460 -0.1355
   60ANI     A1  144   0.034   1.327   0.080  0.0339 -0.1702 -0.8332
   61ANI     A1  145   0.111   0.816   2.135 -0.3363  0.1794 -0.1904
   62ANI     A1  146   0.272   1.055   0.035 -0.3693 -0.3247  0.9104
   63ANI     A1  147   0.316   0.920   1.939 -0.0657  0.2018 -0.1763
   64ANI     A1  148   2.038   1.346   2.055  0.0167  0.5034  0.1009
   65ANI     A1  149   0.205   1.335   2.058  0.7301  0.4511  0.1266
   66ANI     A1  150   2.073   1.061   0.045  0.7638  0.2090  1.0325
   67POL     A1  151   0.070   1.128   0.842 -0.8248 -0.4708  0.2151
   67POL     A2  152   0.034   0.983   0.820 -0.9955 -0.2923  0.5039
   67POL     A3  153  -0.019   0.954   0.682  0.5538 -0.4191  0.7068
   67POL     A4  154   0.080   0.984   0.570 -0.1725  0.0687  0.8077
   67POL     A5  155   0.215   0.985   0.630  0.3215  0.2340  0.6494
   67POL     A6  156   0.256   0.851   0.666 -2.1235 -0.4854  0.7715
   67POL     A7  157   0.370   0.799   0.575  0.1149  0.4667 -0.4911
   67POL     A8  158   0.328   0.740   0.449 -1.0056  0.1598 -0.3585
   68POL     A1  159   1.789   1.383   1.438  0.2122 -1.3013  0.6556
   68POL     A2  160   1.703   1.504   1.466  0.5684  0.7658 -0.4399
   68POL     A3  161   1.580   1.515   1.550 -0.9557  0.9539  0.1959
   68POL     A4  162   1.556   1.395   1.637  1.6592  1.0033 -0.2710
   68POL     A5  163   1.503   1.415   1.770 -0.4535 -1.1062 -1.5413
   68POL     A6  164   1.348   1.412   1.742 -0.1689  0.2953 -0.2587
   68POL     A7  165   1.245   1.374   1.636 -0.4010 -1.0676 -0.1693
   68POL     A8  166   1.270   1.447   1.505 -1.3211  0.3181 -0.7776
   69POL     A1  167   0.871   1.926   1.648  0.7753  0.4052 -0.6482
   69POL     A2  168   0.832   2.050   1.717  0.5625  0.4137  0.3133
   69POL     A3  169   0.736   1.994   1.824  1.3548  0.7207  0.6036
   69POL     A4  170   0.622   1.916   1.793  0.2551 -0.7589  1.0911
   69POL     A5  171   0.639   1.780   1.860  0.4618 -0.1741 -0.1076
   69POL     A6  172   0.620   1.754   2.002 -1.0044  0.1948 -0.1946
   69POL     A7  173   0.479   1.783   2.045 -0.1380  0.2527 -0.5873
   69POL     A8  174   0.397   1.833   1.929 -0.2522 -0.6507  0.2549
   70POL     A1  175   0.043   1.983   0.120 -0.3715  0.3387  0.7448
   70POL     A2  176   0.140   1.893   0.195 -0.2501 -0.6042  1.3965
   70POL     A3  177   0.169   1.924   0.338 -0.5338 -0.5284 -0.5858
   70POL     A4  178   0.244   2.042   0.378  0.1432  0.2445  0.0793
   70POL     A5  179   0.209   2.150   0.275  0.0225 -1.0400 -0.9636
   70POL     A6  180   0.332   2.167   0.209  0.6072 -1.9548 -0.2473
   70POL     A7  181   0.400   2.237   0.314 -0.5326 -0.0991  0.0857
   70POL     A8  182   0.497   2.338   0.261  0.9243 -0.0346 -0.2828
   71POL     A1  183   1.870   0.269   0.646  0.8094 -0.3109 -0.4327
   71POL     A2  184   1.890   0.137   0.699 -0.1199  0.6417  0.6495
   71POL     A3  185   1.761   0.098   0.783  1.4610  0.0484 -0.3726
   71POL     A4  186   1.631   0.139   0.706 -0.5563  1.5028  0.2157
   71POL     A5  187   1.527   0.038   0.738  0.7730  0.2397 -0.9991
   71POL     A6  188   1.537   0.009   0.887 -0.1397 -0.1108  0.1074
   71POL     A7  189   1.418  -0.025   0.971  0.1434 -0.5710  0.2343
   71POL     A8  190   1.318   0.086   0.979  0.2645  0.0410 -0.6806
   72POL     A1  191   1.239   1.508   0.985 -1.2424  0.0349  0.6838
   72POL     A2  192   1.264   1.624   0.901  0.2105 -0.3782  0.2296
   72POL     A3  193   1.200   1.741   0.956 -0.0205  0.7921 -0.9365
   72POL     A4  194   1.260   1.809   1.065  0.3136 -0.5540  0.3529
   72POL     A5  195   1.399   1.772   1.125 -1.3557 -0.8550 -0.0455
   72POL     A6  196   1.424   1.645   1.214 -0.1827  0.1401 -0.8451
   72POL     A7  197   1.302   1.615   1.303 -0.6684 -1.2552 -0.3949
   72POL     A8  198   1.226   1.538   1.202 -0.5194 -0.0076 -0.3274
   73POL     A1  199   1.122   0.647   1.344 -0.2224  0.1586 -0.6702
   73POL     A2  200   0.975   0.661   1.325  0.9963 -0.5192 -0.7010
   73POL     A3  201   0.917   0.767   1.405 -1.2765  0.6127  0.5707
   73POL     A4  202   1.026   0.803   1.497 -0.0557 -0.8823  0.0973
   73POL     A5  203   1.008   0.933   1.539 -0.5608  0.6951 -0.2254
   73POL     A6  204   1.013   1.026   1.420 -0.4103 -0.2126 -1.4886
   73POL     A7  205   1.109   1.139   1.429  0.5354  0.0602 -0.6294
   73POL     A8  206   1.180   1.140   1.564 -0.6239 -0.3071 -0.8895
   74POL     A1  207   2.141   0.217   1.095 -0.9501 -0.4075 -0.2997
   74POL     A2  208   2.144   0.367   1.100  0.1227  1.0921  0.1292
   74POL     A3  209   2.253   0.442   1.167  0.7090 -0.2079  0.4175
   74POL     A4  210   2.388   0.393   1.201 -0.3323 -0.6391  0.0862
   74POL     A5  211   2.438   0.276   1.126  0.3287 -0.4645  0.2855
   74POL     A6  212   2.360   0.273   0.994 -0.0293 -0.7198 -0.2979
   74POL     A7  213   2.444   0.287   0.867 -0.6726 -0.1483 -0.6704
   74POL     A8  214   2.420   0.429   0.875  0.5842 -0.5361 -0.0709
   75POL     A1  215   2.052   0.687   1.856  0.4033 -1.0830  0.5375
   75POL     A2  216   2.200   0.717   1.826 -0.3365  0.6042  1.3739
   75POL     A3  217   2.242   0.632   1.720 -0.3977 -0.5617  0.2651
   75POL     A4  218   2.173   0.674   1.609 -0.4089  0.1440  0.8134
   75POL     A5  219   2.099   0.567   1.529  0.4380 -0.7265 -0.5783
   75POL     A6  220   2.177   0.473   1.451  0.0534  0.2763 -0.4938
   75POL     A7  221   2.168   0.347   1.543  0.5371 -0.0102 -0.8220
   75POL     A8  222   2.275   0.357   1.645  0.6771  0.3543 -0.4483
   76POL     A1  223   1.731   0.092   1.346 -0.7289  0.0690 -0.5064
   76POL     A2  224   1.746  -0.025   1.271  0.7932  0.1774 -0.4254
   76POL     A3  225   1.839  -0.004   1.156 -0.7857  0.2583 -0.4922
   76POL     A4  226   1.985  -0.040   1.164 -0.7408  0.1944  0.1764
   76POL     A5  227   2.033  -0.143   1.069  0.2369  0.4344  1.5932
   76POL     A6  228   1.956  -0.201   0.960  0.8660 -0.5795 -1.9669
   76POL     A7  229   1.919  -0.096   0.858  0.1616 -1.6086 -0.1292
   76POL     A8  230   2.009   0.016   0.855  0.4424 -0.0680  0.2034
   77POL     A1  231   0.610   0.605   1.203 -0.0137 -0.4141 -0.9193
   77POL     A2  232   0.579   0.600   1.346  0.8461 -0.2325  0.3683
   77POL     A3  233   0.482   0.715   1.383 -0.4710  0.3955  0.1062
   77POL     A4  234   0.524   0.836   1.447 -0.3119 -0.3989 -0.1103
   77POL     A5  235   0.427   0.858   1.561 -0.1264 -0.2414  1.4667
   77POL     A6  236   0.286   0.826   1.540  0.3657 -1.4807  0.2736
   77POL     A7  237   0.206   0.945   1.536  0.1336  0.1643 -1.3831
   77POL     A8  238   0.282   1.068   1.580 -0.0312 -0.3023 -0.1454
   78POL     A1  239   0.606   2.155   2.114 -0.3917 -1.1702 -0.3254
   78POL     A2  240   0.502   2.110   2.207 -0.5117 -0.2338  0.5065
   78POL     A3  241   0.529   2.054   2.345 -1.5061  0.6388 -0.2470
   78POL     A4  242   0.657   2.088   2.391  0.5112 -0.0386  0.7701
   78POL     A5  243   0.770   1.997   2.343  1.1262  0.2413  0.3659
   78POL     A6  244   0.852   2.098   2.260 -0.0051 -0.5184  0.1778
   78POL     A7  245   0.890   2.197   2.353 -0.4183  0.7369  0.5348
   78POL     A8  246   1.030   2.201   2.408 -0.2996  0.8945  0.5218
   79POL     A1  247   1.713   1.055   1.292  0.4397 -0.3037 -1.2676
   79POL     A2  248   1.770   0.914   1.288 -0.5407  0.2694 -0.1630
   79POL     A3  249   1.866   0.921   1.396  0.1372 -0.7590  0.1395
   79POL     A4  250   1.977   0.839   1.387 -1.1027  0.8476 -1.2032
   79POL     A5  251   1.956   0.764   1.260 -1.4910 -0.5684  0.3277
   79POL     A6  252   1.977   0.622   1.314 -1.2185  0.1494  0.8541
   79POL     A7  253   1.866   0.554   1.387  0.2898  0.3590 -1.4070
   79POL     A8  254   1.781   0.455   1.321 -0.3356 -0.1815  0.7699
   80POL     A1  255   0.656   1.453   1.262 -0.3132  0.5261 -0.7740
   80POL     A2  256   0.587   1.471   1.390 -0.3400 -0.6424  1.1340
   80POL     A3  257   0.699   1.471   1.485 -1.0243 -0.3343  0.7488
   80POL     A4  258   0.721   1.333   1.537 -0.5882 -0.2243 -1.1287
   80POL     A5  259   0.627   1.242   1.471  0.6295 -0.7550 -0.0476
   80POL     A6  260   0.542   1.158   1.564 -0.7099  0.2375 -0.4101
   80POL     A7  261   0.658   1.108   1.642 -0.4450  0.7306 -0.1588
   80POL     A8  262   0.606   1.004   1.721  0.5333 -0.1160  1.2953
   81POL     A1  263   0.559   2.124   0.505 -0.0417  1.3611  0.5236
   81POL     A2  264   0.654   2.154   0.607  0.3911 -0.6899  0.1914
   81POL     A3  265   0.607   2.248   0.702 -0.0808  1.2814 -0.1607
   81POL     A4  266   0.484   2.214   0.777  0.8719 -0.7301 -0.4535
   81POL     A5  267   0.522   2.098   0.860 -1.3232 -1.6234 -0.3399
   81POL     A6  268   0.400   2.009   0.836  0.1670 -1.4936  0.3760
   81POL     A7  269   0.396   1.974   0.687 -0.3057  0.1240  1.0332
   81POL     A8  270   0.497   1.862   0.668  0.0061 -0.4347 -0.0305
   2.20000   2.20000   2.20000
