dense_salt_polymer
  270
    1POL     A1    1   1.787   0.423   1.042  0.2770  0.5342 -0.0889
    1POL     A2    2   1.696   0.407   1.149  0.1420 -0.4455 -2.4161
    1POL     A3    3   1.784   0.432   1.259  1.5800  0.4573 -1.7043
    1POL     A4    4   1.725   0.497   1.382 -1.1228 -0.1046  0.2709
    1POL     A5    5   1.581   0.446   1.385  0.7753  0.3826 -0.0117
    1POL     A6    6   1.472   0.542   1.367  0.5084 -0.6376 -0.0473
    1POL     A7    7   1.473   0.654   1.456  0.3605 -0.1480  0.6557
    1POL     A8    8   1.436   0.590   1.579 -0.1103  0.1631 -0.2528
    2POL     A1    9   1.491   0.494   0.704 -1.0059 -0.4682  0.2133
    2POL     A2   10   1.585   0.618   0.743 -0.0012 -0.3894  0.9098
    2POL     A3   11   1.734   0.620   0.783  0.3235 -0.7419 -0.3513
    2POL     A4   12   1.802   0.508   0.718 -1.2550  0.0152 -0.0133
    2POL     A5   13   1.860   0.511   0.581  1.3480 -0.7618  0.1511
    2POL     A6   14   1.943   0.627   0.617 -1.3237 -0.3823  0.0893
    2POL     A7   15   1.887   0.763   0.594 -1.1021  0.4328 -0.5436
    2POL     A8   16   1.994   0.826   0.508 -1.0451 -1.6373 -1.1691
    3POL     A1   17   0.418   1.567   1.774 -0.3436 -0.3338 -0.2587
    3POL     A2   18   0.324   1.578   1.666 -0.1284 -0.2465  0.3526
    3POL     A3   19   0.258   1.456   1.611  0.6848 -0.1699 -1.0958
    3POL     A4   20   0.208   1.401   1.738  0.3087  0.3922  0.3482
    3POL     A5   21   0.055   1.397   1.719  0.5615 -0.6433 -0.2940
    3POL     A6   22   0.032   1.315   1.604  0.2766  0.0166  0.6754
    3POL     A7   23   0.049   1.397   1.487  0.9557  1.1733  0.1417
    3POL     A8   24  -0.005   1.528   1.466  0.2893  0.2756  0.4105
    4POL     A1   25   1.149   1.836   1.851 -0.2082  0.1301 -0.0567
    4POL     A2   26   1.125   1.692   1.904 -0.1341 -0.4741  0.6965
    4POL     A3   27   1.202   1.589   1.838 -0.8084 -0.3801 -1.3069
    4POL     A4   28   1.311   1.506   1.905 -0.2010 -0.1096 -0.0587
    4POL     A5   29   1.437   1.525   1.832  0.1177 -1.0809 -0.3490
    4POL     A6   30   1.471   1.668   1.804  0.8378 -1.0218 -0.2769
    4POL     A7   31   1.462   1.783   1.913  0.0536  0.1977  0.8432
    4POL     A8   32   1.528   1.758   2.041 -0.7450  0.5673  0.0466
    5POL     A1   33   1.770   1.079   1.598 -1.2192  0.5260 -0.3563
    5POL     A2   34   1.825   1.145   1.471 -0.6699 -0.2603 -0.0383
    5POL     A3   35   1.717   1.212   1.412  0.1401  0.3963  0.8099
    5POL     A4   36   1.682   1.317   1.504  0.3512  0.1453  0.3378
    5POL     A5   37   1.815   1.389   1.527 -0.8406  0.7959  0.4370
    5POL     A6   38   1.862   1.414   1.389 -0.2046 -0.3131 -0.4459
    5POL     A7   39   1.897   1.553   1.411  0.4626  0.0893 -0.4237
    5POL     A8   40   1.791   1.653   1.393 -0.2780 -0.1798  0.4985
    6POL     A1   41   1.420   0.849   0.182 -0.6356  0.6164 -1.0685
    6POL     A2   42   1.521   0.810   0.081 -1.3952  0.0725  0.8849
    6POL     A3   43   1.573   0.683   0.129 -0.8398 -0.7580 -0.4430
    6POL     A4   44   1.672   0.721   0.244  0.6708 -1.0327  0.4422
    6POL     A5   45   1.805   0.640   0.249 -0.1156 -1.0035 -0.0915
    6POL     A6   46   1.750   0.500   0.200 -0.4372  0.6353  0.0968
    6POL     A7   47   1.792   0.470   0.059 -0.5306 -0.1958 -0.4459
    6POL     A8   48   1.922   0.388   0.052 -0.5002 -0.7276 -0.1814
    7POL     A1   49   2.056   1.640   0.961 -0.2930 -1.5989  0.2562
    7POL     A2   50   2.077   1.629   1.108  1.3302  1.5908 -0.3397
    7POL     A3   51   2.073   1.493   1.182  0.5200  0.5822 -0.0868
    7POL     A4   52   2.204   1.430   1.176 -0.7216 -1.4652 -0.2887
    7POL     A5   53   2.183   1.287   1.156 -0.3955  0.7188 -0.7341
    7POL     A6   54   2.126   1.221   1.280 -0.8357  1.1212  0.4919
    7POL     A7   55   1.984   1.188   1.280 -0.4357  0.2828  0.0726
    7POL     A8   56   1.888   1.248   1.190  0.2181 -1.2258  0.0474
    8POL     A1   57   0.580   1.961   0.682  0.0549  0.1262 -0.0722
    8POL     A2   58   0.628   1.918   0.829  1.4872  0.8193 -0.1562
    8POL     A3   59   0.723   1.799   0.842  0.6522 -0.2289  0.2113
    8POL     A4   60   0.863   1.850   0.833  0.4335 -0.3655  0.3185
    8POL     A5   61   0.848   1.983   0.899  0.0484  0.5641  0.1773
    8POL     A6   62   0.893   1.949   1.037 -0.0639  0.4003  0.4439
    8POL     A7   63   1.025   2.024   1.067 -0.3073  1.3655  0.0722
    8POL     A8   64   1.056   2.110   1.179  1.8538 -0.1413  0.9045
    9POL     A1   65   1.579   0.980   1.258  0.0179  0.6958  1.1989
    9POL     A2   66   1.638   0.945   1.131  0.2511  1.3006 -0.0904
    9POL     A3   67   1.748   0.851   1.125  1.6798 -0.2809  0.4502
    9POL     A4   68   1.821   0.860   1.265 -1.0094  0.3075  0.1557
    9POL     A5   69   1.921   0.958   1.213  0.1477  0.0903 -0.8182
    9POL     A6   70   1.980   0.900   1.095 -0.3545 -0.8203  0.5336
    9POL     A7   71   2.124   0.858   1.103  0.2414  1.0232 -0.1955
    9POL     A8   72   2.162   0.728   1.150  1.0735  0.8867  0.0431
   10POL     A1   73   0.414   1.549   0.717  0.4240  0.4880 -0.0259
   10POL     A2   74   0.369   1.585   0.858  0.0619  0.0279  1.7471
   10POL     A3   75   0.431   1.511   0.976  1.3076  0.3684 -0.0860
   10POL     A4   76   0.388   1.377   0.993  1.6447  1.3667 -0.8163
   10POL     A5   77   0.292   1.360   1.095  0.7520  0.8238  0.0651
   10POL     A6   78   0.378   1.290   1.198  0.3450 -0.0712  0.4729
   10POL     A7   79   0.520   1.265   1.190 -1.6221 -1.0628 -0.0373
   10POL     A8   80   0.592   1.364   1.112  0.0291 -0.4919 -1.7196
   11POL     A1   81   1.524   0.170   0.617 -0.3495  0.1928  0.9401
   11POL     A2   82   1.507   0.080   0.486  0.6367 -0.3317 -0.3186
   11POL     A3   83   1.475   0.165   0.361 -1.0425  0.4272  0.4773
   11POL     A4   84   1.417   0.302   0.391 -1.0310  0.9971 -0.1573
   11POL     A5   85   1.466   0.395   0.278 -0.2835  0.0796  0.3059
   11POL     A6   86   1.341   0.388   0.185 -0.7599  0.3420  0.0150
   11POL     A7   87   1.211   0.356   0.246 -0.1141  1.2558  0.5054
   11POL     A8   88   1.147   0.458   0.353  0.7568 -0.2358  0.0123
   12POL     A1   89   1.170   0.134   1.159 -0.6474 -0.7088  0.1681
   12POL     A2   90   1.185   0.258   1.081  0.0573  0.6712  0.6202
   12POL     A3   91   1.104   0.361   1.139 -0.4423 -0.0494  0.1552
   12POL     A4   92   0.963   0.374   1.110  0.7669 -0.2339  1.4101
   12POL     A5   93   0.916   0.500   1.054  1.0473  0.2161 -0.4047
   12POL     A6   94   0.788   0.542   1.100 -0.5697 -0.1442  1.0146
   12POL     A7   95   0.699   0.627   0.999  0.4922 -0.0686 -0.0559
   12POL     A8   96   0.638   0.532   0.902 -0.7507 -0.5471  0.1555
   13CAT     A1   97   1.350   2.021   0.249  0.5177 -0.1123  0.1133
   14CAT     A1   98   2.009   1.876   2.183  0.0286  0.4494  0.2311
   15CAT     A1   99   1.911   1.748   0.220  0.0114  0.6084  0.2632
   16CAT     A1  100   1.788   2.031   2.152  1.1509  0.4418  0.6600
   17CAT     A1  101   0.219   1.958   2.080  0.6877 -0.5715  1.3712
   18CAT     A1  102   0.170   2.052   0.195  0.9430 -0.0607  0.2920
   19CAT     A1  103   0.549   2.076   0.191 -0.4743 -0.0373  0.4252
   20CAT     A1  104   0.340   1.880   0.269 -0.3986  0.4975  0.2631
   21CAT     A1  105   0.379   0.012   0.014  0.1562 -0.0675  0.9232
   22CAT     A1  106   0.436   1.796   2.131 -1.1707  0.2820  0.3937
   23CAT     A1  107   0.618   2.010   2.056  0.0033  0.7147  0.2372
   24CAT     A1  108   0.859   1.842   2.189  0.1809  0.2773 -0.2641
   25CAT     A1  109   0.727   1.824   0.265 -0.3204  0.0733  0.2760
   26CAT     A1  110   2.192   2.089   2.192 -0.4417 -0.3659 -0.5950
   27CAT     A1  111   1.980   2.096   0.190  0.5458  0.1692  0.2098
   28CAT     A1  112   0.786   2.181   0.037  0.1300  0.1738  0.5536
   29CAT     A1  113   1.191   0.005   0.126  0.5069 -0.2610 -0.4334
   30CAT     A1  114   0.936   2.054   0.243 -0.0902 -0.7272  0.4688
   31CAT     A1  115   1.598   0.012   0.135  0.0494 -0.5323  0.2917
   32CAT     A1  116   1.508   1.779   0.248  0.1253 -0.8044  0.1553
   33CAT     A1  117   1.032   2.061   2.129 -1.2319  0.3309  0.2356
   34CAT     A1  118   1.123   1.834   0.162  0.9647 -0.3071  0.2003
   35CAT     A1  119   1.724   1.670   0.013 -0.1140  0.9473  0.7096
   36CAT     A1  120   2.143   1.915   0.287 -0.2229 -0.0772 -0.3620
   37CAT     A1  121   1.745   2.013   0.339 -0.0839 -0.3316 -0.3081
   38CAT     A1  122   1.427   2.128   2.119  0.6600 -0.8838 -0.2132
   39CAT     A1  123   0.081   1.763   0.073  0.0135  0.1820 -0.4483
   40ANI     A1  124   1.619   2.128   2.150 -0.2169 -0.6405  0.1402
   41ANI     A1  125   1.544   1.960   0.307 -0.7028 -0.3402 -0.4201
   42ANI     A1  126   1.943   1.943   0.320 -0.0679  0.4087  0.1767
   43ANI     A1  127   1.824   1.818   2.141 -0.4049 -0.0807 -0.4177
   44ANI     A1  128   1.776   2.168   0.212  0.4141 -0.2434  0.0662
   45ANI     A1  129   2.184   2.109   0.185  0.2753  0.0562 -0.3245
   46ANI     A1  130   1.232   2.158   2.120 -0.2369 -0.5604  0.0437
   47ANI     A1  131   0.008   1.888   2.099 -0.6325 -0.6128 -0.8633
   48ANI     A1  132   2.100   1.770   0.143 -0.5969  0.1790 -0.5865
   49ANI     A1  133   0.826   2.030   2.092  0.1660 -0.0452  0.8287
   50ANI     A1  134   0.352   2.088   0.230 -0.3410 -0.8142 -0.0809
   51ANI     A1  135   0.742   2.095   0.202 -0.0966  0.0180  0.8962
   52ANI     A1  136   0.564   2.182   2.198  0.0992  0.0906  0.4552
   53ANI     A1  137   0.415   1.953   2.039 -0.3531  0.1777  0.4526
   54ANI     A1  138   0.275   1.794   0.028  0.6220 -0.1071 -0.7200
   55ANI     A1  139   0.151   1.868   0.287 -0.1475  0.1770 -0.4220
   56ANI     A1  140   0.197   2.120   0.002 -0.1140 -0.0253 -0.0409
   57ANI     A1  141   0.539   1.876   0.257 -0.5962  0.4415  0.3540
   58ANI     A1  142   0.908   1.835   0.211  0.2628 -0.2682  0.4045
   59ANI     A1  143   1.392   0.011   0.164  0.4682 -0.2697 -0.4658
   60ANI     A1  144   1.136   2.027   0.249 -0.5364 -0.2068  0.2141
   61ANI     A1  145   1.069   1.865   2.167 -0.2435  0.4701  0.0359
   62ANI     A1  146   1.988   2.063   2.195  0.4263 -0.2719 -0.5101
   63ANI     A1  147   0.976   2.187   0.078  0.5647  0.1363 -0.3093
   64ANI     A1  148   1.322   1.802   0.187 -0.3377  0.3226 -0.0838
   65ANI     A1  149   1.715   1.695   0.201  0.1617  0.0104  0.2650
   66ANI     A1  150   0.643   1.820   2.156  0.3587 -0.3749 -0.3657
   67POL     A1  151   0.021   1.433   0.824  0.1749 -0.5869  1.0083
   67POL     A2  152   0.075   1.471   0.690  0.3718 -0.1809 -0.0409
   67POL     A3  153   0.067   1.364   0.584 -0.2317 -0.1732 -0.6577
   67POL     A4  154   0.015   1.452   0.474 -1.3397 -0.6898 -0.0958
   67POL     A5  155   0.146   1.522   0.426 -0.1663  0.6412  0.3853
   67POL     A6  156   0.257   1.580   0.505 -0.6761  0.4487  0.4931
   67POL     A7  157   0.272   1.737   0.490  0.5307  0.6194  0.0980
   67POL     A8  158   0.401   1.775   0.549  1.2725  0.4038 -1.3151
   68POL     A1  159   1.099   0.585   1.418  0.1194 -0.3379  0.1800
   68POL     A2  160   1.000   0.661   1.477 -1.6158 -0.8457 -1.1589
   68POL     A3  161   0.991   0.629   1.615  0.7407 -0.4895  0.0809
   68POL     A4  162   1.118   0.564   1.653  0.8738 -0.3286  0.7444
   68POL     A5  163   1.220   0.682   1.660 -1.7279 -0.0537 -0.9791
   68POL     A6  164   1.205   0.787   1.568 -0.3417 -0.6347  0.7289
   68POL     A7  165   1.273   0.904   1.645 -0.2807 -0.2107 -0.2119
   68POL     A8  166   1.228   0.895   1.775  0.9770 -0.9354 -0.9260
   69POL     A1  167   1.632   1.358   0.770 -0.3525  0.2962 -1.4419
   69POL     A2  168   1.523   1.319   0.870 -0.0357  0.1199 -0.0247
   69POL     A3  169   1.388   1.369   0.841  0.2139 -0.1699  0.5022
   69POL     A4  170   1.347   1.475   0.944 -0.3987  0.0222 -0.3593
   69POL     A5  171   1.448   1.507   1.060 -0.0364 -1.5247  0.1446
   69POL     A6  172   1.523   1.396   1.113 -0.6136 -0.5403  0.6097
   69POL     A7  173   1.456   1.275   1.158  0.6752  1.0473 -0.1157
   69POL     A8  174   1.510   1.161   1.097 -0.1611 -0.7406 -0.1588
   70POL     A1  175   0.373   1.152   0.622 -0.1630  0.4871 -0.2352
   70POL     A2  176   0.487   1.246   0.615  0.3303 -0.8832  0.0157
   70POL     A3  177   0.623   1.184   0.655 -0.1986 -0.5625  0.0318
   70POL     A4  178   0.599   1.048   0.716  0.6607  0.5743 -1.1398
   70POL     A5  179   0.540   1.011   0.844 -1.0455  0.2853 -0.5033
   70POL     A6  180   0.604   1.091   0.949  0.5460  1.0161 -0.4000
   70POL     A7  181   0.698   1.044   1.054  0.4034  0.5510  0.0877
   70POL     A8  182   0.710   0.894   1.047 -0.0178  0.0520  0.0059
   71POL     A1  183   0.075   1.815   1.738  0.3522 -0.3869 -0.7196
   71POL     A2  184   0.072   1.956   1.691 -0.3658 -0.8172 -1.0483
   71POL     A3  185   0.145   2.039   1.797 -0.2366 -0.0902 -0.0386
   71POL     A4  186   0.289   2.082   1.784 -0.1724 -0.4453 -0.7003
   71POL     A5  187   0.349   2.059   1.648 -0.4621  0.7225  0.7412
   71POL     A6  188   0.395   2.195   1.586 -0.6999 -0.1731  0.4803
   71POL     A7  189   0.264   2.253   1.575 -0.2027 -1.4676 -0.0840
   71POL     A8  190   0.129   2.199   1.622 -0.0409  1.0200 -0.8269
   72POL     A1  191   1.754   0.891   2.021 -1.2896 -1.2025  0.9734
   72POL     A2  192   1.877   0.831   2.059  0.1845  0.5903 -0.1899
   72POL     A3  193   1.991   0.925   2.064 -0.7807  1.3510  1.0667
   72POL     A4  194   2.017   1.003   1.936 -0.2386  0.8385 -1.5344
   72POL     A5  195   1.951   1.135   1.921  0.6222  0.1178  0.2743
   72POL     A6  196   2.017   1.237   2.006 -0.0178 -0.1168  0.7712
   72POL     A7  197   1.920   1.283   2.110  0.4678  0.1072 -0.1427
   72POL     A8  198   1.864   1.417   2.069 -0.0900  1.1483  0.6312
   73POL     A1  199   0.403   1.781   1.429 -0.0646 -0.1660  0.1334
   73POL     A2  200   0.268   1.840   1.480 -0.8312 -0.4618  0.4468
   73POL     A3  201   0.239   1.973   1.405  0.7975  0.0645 -0.4014
   73POL     A4  202   0.162   1.968   1.268 -0.5085  0.5622  0.1386
   73POL     A5  203   0.111   1.828   1.230  0.7236 -0.0478  0.0417
   73POL     A6  204   0.162   1.790   1.089 -0.3116  0.4679 -0.4626
   73POL     A7  205   0.278   1.883   1.040 -0.5134  0.8973  0.8105
   73POL     A8  206   0.202   1.983   0.964 -0.7761  0.5742  0.5996
   74POL     A1  207   0.974   2.169   0.554  1.3316  0.9793 -1.2133
   74POL     A2  208   1.028   2.211   0.423 -0.1898  1.2319  0.0710
   74POL     A3  209   1.065   2.349   0.425 -0.5614 -0.0427 -0.0268
   74POL     A4  210   1.007   2.459   0.514 -0.9894  0.0704  0.5495
   74POL     A5  211   0.877   2.418   0.588 -0.1397  0.1563 -0.9318
   74POL     A6  212   0.874   2.427   0.741 -0.1578 -0.4789  0.0240
   74POL     A7  213   0.873   2.580   0.776  0.0451 -0.2471 -0.1455
   74POL     A8  214   0.994   2.636   0.728  1.0343  0.1580  0.1737
   75POL     A1  215   1.957   2.150   0.522  1.3943  1.6965  0.8143
   75POL     A2  216   1.844   2.225   0.569 -0.3262 -0.4606 -1.0190
   75POL     A3  217   1.713   2.164   0.559  0.6422 -0.4549  0.3366
   75POL     A4  218   1.706   2.022   0.524 -0.2451 -0.2901 -1.2151
   75POL     A5  219   1.608   1.965   0.630 -0.6637  0.7101  0.7920
   75POL     A6  220   1.482   2.019   0.575  1.1617  0.1182 -0.0882
   75POL     A7  221   1.401   1.900   0.547  0.3540  0.2904 -0.0260
   75POL     A8  222   1.427   1.802   0.657 -0.0456 -0.4429 -0.1948
   76POL     A1  223   0.617   0.072   1.136  0.4401 -0.1370 -0.4791
   76POL     A2  224   0.477   0.084   1.184  1.3145 -0.3501  0.0024
   76POL     A3  225   0.496   0.140   1.330  0.7891  0.2258  0.7148
   76POL     A4  226   0.544   0.289   1.313  0.4638 -0.5930 -1.3750
   76POL     A5  227   0.655   0.327   1.403  0.6350 -0.2911  1.3248
   76POL     A6  228   0.722   0.208   1.447 -2.0499  0.1874 -1.0643
   76POL     A7  229   0.861   0.239   1.500 -1.1109 -0.3773 -0.7269
   76POL     A8  230   0.944   0.348   1.430  0.8258  0.2287 -0.2291
   77POL     A1  231   2.031   0.424   0.323  0.8741  0.3189  1.2111
   77POL     A2  232   2.071   0.345   0.429  1.2647  1.2653 -1.0486
   77POL     A3  233   2.221   0.345   0.430  0.4467  0.0172  1.1354
   77POL     A4  234   2.291   0.480   0.416 -0.2461 -0.9277 -0.4580
   77POL     A5  235   2.329   0.518   0.555 -0.6763 -0.0502 -1.6146
   77POL     A6  236   2.278   0.647   0.595  0.8831  1.4506  1.2264
   77POL     A7  237   2.237   0.658   0.745 -0.5412 -0.2903 -0.8960
   77POL     A8  238   2.270   0.543   0.841  0.3617 -0.3260 -0.2887
   78POL     A1  239   1.983   0.033   1.979 -0.6618 -0.8507  0.7852
   78POL     A2  240   2.072   0.085   1.870 -0.7515  0.1543 -0.5062
   78POL     A3  241   2.030   0.047   1.727 -0.3280  0.1014 -0.4524
   78POL     A4  242   2.031  -0.106   1.695 -0.6977 -0.0773  1.0205
   78POL     A5  243   1.906  -0.169   1.659  0.6325  0.1799 -0.4543
   78POL     A6  244   1.892  -0.260   1.769 -1.0849 -0.2171 -0.3162
   78POL     A7  245   1.945  -0.407   1.779  0.4672 -0.2392 -0.2551
   78POL     A8  246   2.056  -0.443   1.867 -0.8426 -0.8144  0.3164
   79POL     A1  247   0.300   1.133   1.695  1.1503  0.3871 -0.0425
   79POL     A2  248   0.410   1.115   1.600 -0.8844  0.3962  0.3783
   79POL     A3  249   0.375   1.007   1.516  0.1843  1.1997  0.6889
   79POL     A4  250   0.458   0.888   1.511  0.7725  0.1769 -0.3558
   79POL     A5  251   0.564   0.899   1.608 -0.2780 -1.8783  0.6368
   79POL     A6  252   0.554   0.789   1.698  1.0483  0.2928  0.1514
   79POL     A7  253   0.499   0.819   1.837 -0.7068 -0.9362 -1.2448
   79POL     A8  254   0.357   0.828   1.871  0.3467  0.8402 -0.1161
   80POL     A1  255   0.912   1.250   0.981  0.1155  0.0282 -0.5661
   80POL     A2  256   0.938   1.363   0.889 -1.4789  1.2663 -0.9572
   80POL     A3  257   1.089   1.376   0.904  0.2414 -0.2756  0.7353
   80POL     A4  258   1.159   1.272   0.981  0.0235 -0.4616  1.0575
   80POL     A5  259   1.134   1.130   0.927  0.2489 -0.7633  1.4235
   80POL     A6  260   1.035   1.057   1.006  1.2714  0.8834  0.9699
   80POL     A7  261   1.042   0.915   1.052  0.7537  0.9867  0.2558
   80POL     A8  262   1.101   0.814   0.959 -0.0395 -0.9950  0.8519
   81POL     A1  263   0.987   2.170   1.637  0.1446  0.4663 -1.1549
   81POL     A2  264   0.871   2.177   1.724  0.9619  1.0999  0.5400
   81POL     A3  265   0.751   2.244   1.652  0.6961  1.4843  0.1180
   81POL     A4  266   0.731   2.157   1.524  0.0658  0.2194 -1.6093
   81POL     A5  267   0.772   2.012   1.561 -1.2591  0.5230 -0.3481
   81POL     A6  268   0.648   1.951   1.638 -0.0298 -1.6054 -1.4636
   81POL     A7  269   0.613   1.809   1.642  0.3540  0.1890 -0.6294
   81POL     A8  270   0.735   1.734   1.626  0.7821 -0.2867 -0.0392
   2.20000   2.20000   2.20000
