dense_salt_polymer
  270
    1POL     A1    1   1.466   0.622   0.478  0.5867 -0.5939  0.3241
    1POL     A2    2   1.406   0.531   0.393 -0.3990  0.5733  0.6331
    1POL     A3    3   1.292   0.617   0.320  1.1222  0.2152 -0.2726
    1POL     A4    4   1.344   0.720   0.219 -0.6275  0.3530 -0.6214
    1POL     A5    5   1.485   0.696   0.206  0.3668  1.6894 -0.2587
    1POL     A6    6   1.546   0.803   0.291  0.0440  0.2899  1.3941
    1POL     A7    7   1.688   0.822   0.245  0.5999 -0.5162 -0.3676
    1POL     A8    8   1.719   0.705   0.165 -0.6729  0.0270 -0.3835
    2POL     A1    9   1.737   1.288   0.249  1.1839 -0.3869 -0.5174
    2POL     A2   10   1.589   1.326   0.240 -0.4394  0.2646 -0.3900
    2POL     A3   11   1.495   1.279   0.339 -0.4809  0.9393 -0.2404
    2POL     A4   12   1.465   1.133   0.304 -0.0929  0.4335  0.2126
    2POL     A5   13   1.412   1.072   0.423 -0.5987  0.1482  0.6637
    2POL     A6   14   1.265   1.038   0.457 -0.5552  0.6935  0.2413
    2POL     A7   15   1.184   0.996   0.335 -0.9496 -0.3375 -1.2705
    2POL     A8   16   1.128   1.135   0.317  0.4682  0.3664 -0.5980
    3POL     A1   17   0.920   1.608   1.784 -0.8283  0.8616 -0.3969
    3POL     A2   18   0.770   1.613   1.776  0.4464 -0.9282  0.1381
    3POL     A3   19   0.708   1.594   1.639  0.8624  0.2791  0.8776
    3POL     A4   20   0.744   1.449   1.639  0.7651  0.9539  0.2968
    3POL     A5   21   0.841   1.421   1.532 -0.3506 -0.4999  0.3049
    3POL     A6   22   0.950   1.508   1.548  0.0477 -1.3124 -0.1074
    3POL     A7   23   1.071   1.436   1.594 -0.5651  1.0241 -1.2003
    3POL     A8   24   1.162   1.464   1.712  0.6630 -0.3216  1.1080
    4POL     A1   25   0.792   0.528   0.891  0.2103  0.8889  0.4452
    4POL     A2   26   0.884   0.543   0.996 -0.2216 -0.0268 -0.2381
    4POL     A3   27   0.988   0.638   0.966 -0.5625 -0.0535  1.6518
    4POL     A4   28   0.940   0.781   0.940  0.4261  0.2511 -0.7437
    4POL     A5   29   1.019   0.845   0.842  0.3004 -1.5718  0.0220
    4POL     A6   30   1.146   0.782   0.838 -0.0712 -0.5632  0.8228
    4POL     A7   31   1.181   0.716   0.712  1.2551 -1.1358 -0.3742
    4POL     A8   32   1.087   0.609   0.681  0.3030 -0.3636 -0.3194
    5POL     A1   33   0.754   2.195   1.970  0.4932  0.5781  0.5043
    5POL     A2   34   0.844   2.185   1.845 -0.5487  0.2197 -0.5051
    5POL     A3   35   0.801   2.149   1.707 -0.0357  0.9997  0.6883
    5POL     A4   36   0.868   2.009   1.687 -1.1263 -0.1769 -0.6592
    5POL     A5   37   1.011   2.010   1.683 -0.7911 -0.6972  0.0141
    5POL     A6   38   1.088   2.139   1.656 -1.1918  0.6888  0.3345
    5POL     A7   39   1.066   2.260   1.717  2.1404 -0.0058 -0.7328
    5POL     A8   40   1.124   2.327   1.837 -0.2636  0.6562  0.2683
    6POL     A1   41   1.838   1.471   1.991  0.5764  1.2896 -0.4099
    6POL     A2   42   1.950   1.488   1.884  0.0079  1.2125  0.3190
    6POL     A3   43   1.966   1.358   1.812  0.2670  0.2527 -0.8737
    6POL     A4   44   1.939   1.234   1.887 -0.5837  1.2342 -0.7460
    6POL     A5   45   2.045   1.120   1.901  0.6280 -0.3364 -0.8521
    6POL     A6   46   2.041   1.038   1.770  0.2568  0.3776  0.4155
    6POL     A7   47   1.957   0.923   1.813 -0.0470  0.2368 -0.1352
    6POL     A8   48   1.815   0.958   1.832  0.2043  0.9769 -1.0375
    7POL     A1   49   0.220   1.773   1.999  0.1288  0.3170  0.1380
    7POL     A2   50   0.288   1.641   2.035 -0.2581 -1.1472 -2.6396
    7POL     A3   51   0.225   1.579   2.150 -0.4247  0.8232  0.0544
    7POL     A4   52   0.105   1.654   2.184 -0.5026 -0.3183 -0.6516
    7POL     A5   53  -0.006   1.657   2.094 -0.2940  0.4667 -0.5315
    7POL     A6   54  -0.050   1.526   2.068  0.4850  0.7756 -0.1960
    7POL     A7   55   0.061   1.431   1.999  0.0965 -0.9980  0.7676
    7POL     A8   56   0.143   1.505   1.905  0.5150  1.0571 -0.1975
    8POL     A1   57   0.206   0.250   1.180  0.2870  0.2932 -0.9824
    8POL     A2   58   0.185   0.347   1.081 -0.5189  0.2199  0.7452
    8POL     A3   59   0.145   0.479   1.113  0.9338  0.8816  0.6572
    8POL     A4   60   0.008   0.466   1.203  0.3453  1.3324  1.2984
    8POL     A5   61  -0.079   0.460   1.080 -0.1514  1.5847 -0.8380
    8POL     A6   62  -0.154   0.343   1.134  0.2901 -0.0582 -0.6280
    8POL     A7   63  -0.287   0.391   1.175  0.3465 -0.6972  0.2952
    8POL     A8   64  -0.415   0.328   1.142 -0.4899 -0.2715 -0.9555
    9POL     A1   65   0.127   1.737   0.283 -0.1877  1.3827 -1.1444
    9POL     A2   66   0.233   1.718   0.382 -0.0966  0.1773 -0.3069
    9POL     A3   67   0.296   1.855   0.403 -0.1498  0.8265 -0.3072
    9POL     A4   68   0.247   1.958   0.312  0.5915  0.4457  1.1832
    9POL     A5   69   0.342   2.022   0.213 -1.2184  0.0148  0.0167
    9POL     A6   70   0.439   2.122   0.276  0.5092 -0.4071 -0.1424
    9POL     A7   71   0.395   2.242   0.197 -0.2490  0.3636  0.2237
    9POL     A8   72   0.360   2.366   0.263 -0.9615  0.3528  0.8862
   10POL     A1   73   0.128   1.483   0.823  0.5493 -0.0591 -0.7888
   10POL     A2   74   0.127   1.632   0.780  1.6596  0.5414  0.9733
   10POL     A3   75   0.159   1.642   0.635 -0.4655  0.2314 -0.2667
   10POL     A4   76   0.064   1.549   0.547  0.6393  1.0919  0.0549
   10POL     A5   77  -0.057   1.537   0.627  0.3628 -0.2371 -0.7244
   10POL     A6   78  -0.108   1.397   0.678  0.9978 -0.2928 -0.0125
   10POL     A7   79  -0.120   1.382   0.813  1.2427  0.3347 -0.9676
   10POL     A8   80  -0.267   1.380   0.844 -1.1045  0.2440  0.1246
   11POL     A1   81   1.749   1.549   0.122  1.0991  0.3038  1.5032
   11POL     A2   82   1.853   1.498   0.032 -1.0873  0.2900 -1.0676
   11POL     A3   83   1.980   1.523   0.110  0.0683  0.7754  1.3996
   11POL     A4   84   2.007   1.474   0.251  0.0624  0.1669  1.2985
   11POL     A5   85   2.049   1.342   0.250 -1.3505 -1.9391  0.7106
   11POL     A6   86   2.126   1.282   0.138  0.4991 -1.2806 -0.2598
   11POL     A7   87   2.257   1.228   0.174  0.5887  1.1810 -0.1625
   11POL     A8   88   2.354   1.316   0.115  0.0142  1.0816  1.0856
   12POL     A1   89   0.830   1.366   1.974 -0.5136 -1.2115 -0.2547
   12POL     A2   90   0.909   1.316   2.091 -0.9165  0.5066 -0.5282
   12POL     A3   91   1.051   1.341   2.058  0.3044 -0.8071  0.3639
   12POL     A4   92   1.116   1.466   2.112  0.6426 -0.9295 -0.4101
   12POL     A5   93   1.039   1.571   2.166  0.2915  0.9733 -0.1559
   12POL     A6   94   1.043   1.579   2.306 -0.3313  0.1462 -1.0895
   12POL     A7   95   1.024   1.452   2.391  0.9308 -0.5294 -0.9182
   12POL     A8   96   0.875   1.435   2.414  0.0737 -0.5880 -0.0117
   13CAT     A1   97   0.586   0.069   0.754 -0.4577 -0.5355 -0.4101
   14CAT     A1   98   1.275   1.959   1.056  0.1375 -0.7199  0.3292
   15CAT     A1   99   1.109   2.192   1.068 -0.6248 -0.4330  0.5486
   16CAT     A1  100   1.047   1.909   0.829  0.3040 -0.2948  0.4686
   17CAT     A1  101   1.649   1.897   1.024 -0.5831  0.3895 -0.3088
   18CAT     A1  102   1.658   2.143   0.817  0.9494 -0.1145  0.0938
   19CAT     A1  103   2.120   0.068   0.875  0.3816  0.2986 -0.3649
   20CAT     A1  104   1.716   0.153   1.047  0.0122  0.3505  0.2692
   21CAT     A1  105   1.824   1.862   0.791 -0.3260  0.3449 -0.3758
   22CAT     A1  106   1.863   2.078   1.031 -0.1315  0.5431  0.5946
   23CAT     A1  107   2.089   1.918   0.925 -0.2451  0.1222 -0.6054
   24CAT     A1  108   0.158   2.186   0.724 -0.6282 -0.0021  1.1956
   25CAT     A1  109   0.083   2.129   1.089 -0.3250 -0.3277 -0.7588
   26CAT     A1  110   1.441   1.895   0.797 -0.0748 -0.6011 -0.1133
   27CAT     A1  111   1.242   2.129   0.742  0.2066  0.5290 -0.1610
   28CAT     A1  112   2.173   2.003   0.655 -0.0069 -0.1465 -0.1696
   29CAT     A1  113   0.418   2.057   0.703  0.5411 -0.6642  0.6955
   30CAT     A1  114   0.323   0.110   0.898  0.5125 -0.5652  0.0525
   31CAT     A1  115   0.826   2.065   0.670  0.4074  0.2381 -0.3603
   32CAT     A1  116   0.743   0.083   0.992  0.9862  0.6503 -0.2238
   33CAT     A1  117   0.239   1.906   0.870  0.5227  0.1253  0.1350
   34CAT     A1  118   0.479   2.122   1.024 -0.1889  0.2302  0.5827
   35CAT     A1  119   0.861   2.033   1.010 -0.5167 -0.3616 -0.0027
   36CAT     A1  120   1.381   0.063   0.931 -0.1628 -0.6888  0.3529
   37CAT     A1  121   0.973   0.080   0.855 -0.0880 -1.0491  0.1314
   38CAT     A1  122   0.629   1.933   0.830 -0.0973  0.4999  0.0450
   39CAT     A1  123   1.495   2.153   1.162 -0.2479  0.7786  0.2935
   40ANI     A1  124   0.837   1.923   0.814  0.4490 -0.5060 -0.1793
   41ANI     A1  125   0.778   0.123   0.802  0.1394 -0.0126  0.0701
   42ANI     A1  126   1.304   2.146   1.109 -0.1445 -1.0377  0.2423
   43ANI     A1  127   1.054   1.996   1.046  0.0209  0.5455 -0.0280
   44ANI     A1  128   1.168   0.085   0.885 -0.0595  0.3926  0.2493
   45ANI     A1  129   1.245   1.929   0.779 -0.9161  0.1478 -0.6878
   46ANI     A1  130   0.435   1.940   0.862  0.0227 -0.7020  0.3224
   47ANI     A1  131   1.660   1.954   0.814  0.2925 -0.8359 -0.1713
   48ANI     A1  132   1.446   1.873   0.995  0.3206 -0.6785  0.3637
   49ANI     A1  133   0.167   1.988   0.697  0.0112 -1.1482 -0.0606
   50ANI     A1  134   2.074   2.122   1.006 -0.4960  0.3548  0.0882
   51ANI     A1  135   2.004   1.924   0.742 -1.2293 -0.2478 -0.0424
   52ANI     A1  136   1.877   1.891   0.992 -0.3002 -0.1271  0.0840
   53ANI     A1  137   1.685   2.067   1.138 -0.1156  0.2587 -0.1897
   54ANI     A1  138   1.522   0.116   1.061 -0.4111 -0.6280  0.4576
   55ANI     A1  139   1.438   2.139   0.785  0.7807  0.2984 -0.4425
   56ANI     A1  140   1.804   0.035   0.893 -0.1268  0.1072 -0.3672
   57ANI     A1  141   2.156   0.000   0.697 -0.0151  0.1199 -0.0140
   58ANI     A1  142   0.113   0.122   0.891 -1.0805 -0.5364  0.7810
   59ANI     A1  143   0.627   2.101   0.668  0.5890  0.8920 -0.2055
   60ANI     A1  144   0.526   0.107   0.956  0.3017  0.1825  0.5518
   61ANI     A1  145   0.277   2.144   1.066 -0.2616  0.6194  0.6721
   62ANI     A1  146   1.017   2.104   0.722 -0.2086  0.2637 -0.0608
   63ANI     A1  147   0.353   0.031   0.721 -0.1809  0.2370  0.0691
   64ANI     A1  148   0.673   2.083   0.993  0.4592  0.0335  0.4181
   65ANI     A1  149   0.908   0.033   1.063  0.5053 -0.2231  0.3224
   66ANI     A1  150   0.088   1.898   0.979  0.2064 -0.3093  0.5139
   67POL     A1  151   0.787   1.052   0.884 -0.2229  0.3860 -0.0583
   67POL     A2  152   0.779   0.906   0.920  0.6096 -0.6550 -0.3955
   67POL     A3  153   0.737   0.882   1.061 -1.0662  1.3357  0.1691
   67POL     A4  154   0.816   0.993   1.117 -0.9406 -0.3380 -0.3127
   67POL     A5  155   0.903   0.948   1.229  1.1434  0.5645 -0.6105
   67POL     A6  156   0.895   0.802   1.231 -0.2088  0.1967  0.7874
   67POL     A7  157   0.766   0.740   1.276  0.2146 -0.0176 -1.3378
   67POL     A8  158   0.700   0.806   1.392 -0.4251 -1.2201 -0.3438
   68POL     A1  159   1.620   1.264   1.782  1.0535  1.2089  1.2665
   68POL     A2  160   1.583   1.352   1.659 -0.1073  0.9500 -0.6951
   68POL     A3  161   1.512   1.472   1.696  0.3347 -0.0520 -1.0877
   68POL     A4  162   1.486   1.486   1.846  0.4979 -0.2845  2.0902
   68POL     A5  163   1.353   1.417   1.881 -0.2710 -1.0981  0.4552
   68POL     A6  164   1.354   1.278   1.901  0.3446  1.6091  0.2424
   68POL     A7  165   1.435   1.269   2.022 -0.9936  0.5296 -0.2241
   68POL     A8  166   1.357   1.315   2.141 -0.1030 -1.9142 -0.6126
   69POL     A1  167   1.279   0.502   1.405 -1.0065 -0.4949 -0.7669
   69POL     A2  168   1.152   0.525   1.335 -0.9260 -0.1108  0.3166
   69POL     A3  169   1.128   0.652   1.272  0.5570 -1.3024 -0.6149
   69POL     A4  170   1.269   0.711   1.231 -1.2406  0.2014 -0.2908
   69POL     A5  171   1.319   0.622   1.133 -2.3937  0.6233 -0.8346
   69POL     A6  172   1.452   0.701   1.074 -0.3824 -0.6277  0.0012
   69POL     A7  173   1.424   0.848   1.121  0.9977  0.5218  0.7143
   69POL     A8  174   1.507   0.948   1.065 -0.0247 -0.0795 -0.0062
   70POL     A1  175   0.463   0.501   0.949 -0.7116  0.5471  0.7897
   70POL     A2  176   0.330   0.560   0.961  0.5227  0.1066  0.9318
   70POL     A3  177   0.282   0.624   0.831  0.1752 -0.8829 -0.6210
   70POL     A4  178   0.274   0.517   0.718  0.6368 -1.0705 -0.2020
   70POL     A5  179   0.269   0.364   0.737  0.6101 -0.3402 -0.9676
   70POL     A6  180   0.408   0.327   0.736  0.5348  0.3558  1.1753
   70POL     A7  181   0.501   0.418   0.661  0.2438 -0.3671 -0.4828
   70POL     A8  182   0.430   0.484   0.531  0.6265  0.5361 -0.8860
   71POL     A1  183   1.673   0.105   0.299 -0.4193 -0.1792  0.1221
   71POL     A2  184   1.655   0.190   0.173 -0.4820  0.0005  0.3370
   71POL     A3  185   1.784   0.217   0.096  0.6063 -0.1950  0.0840
   71POL     A4  186   1.925   0.197   0.155  0.3875 -0.8541 -0.0757
   71POL     A5  187   1.982   0.330   0.214  0.7191  0.7190  0.0859
   71POL     A6  188   2.113   0.404   0.162  0.4857 -0.3213 -0.5472
   71POL     A7  189   2.251   0.376   0.213 -0.0146 -0.0806  0.8012
   71POL     A8  190   2.266   0.247   0.277 -0.5843 -0.3652 -1.3038
   72POL     A1  191   0.339   0.954   2.189 -0.1959  0.9723  1.3699
   72POL     A2  192   0.403   0.833   2.254  0.4970  1.0983  0.5717
   72POL     A3  193   0.457   0.769   2.132 -0.3627  0.4710 -0.3263
   72POL     A4  194   0.365   0.685   2.049 -0.3019  0.2357 -0.5930
   72POL     A5  195   0.352   0.764   1.929  0.3621  0.1555  0.0205
   72POL     A6  196   0.216   0.830   1.928  0.3838  0.7039 -1.6448
   72POL     A7  197   0.148   0.852   1.801 -0.9209  0.5353 -0.0271
   72POL     A8  198   0.173   0.982   1.759 -0.0532 -0.8706 -1.0317
   73POL     A1  199   1.139   0.058   0.009  1.0422  0.7492  0.5914
   73POL     A2  200   1.174  -0.049   0.121 -0.1400 -0.2322  0.9058
   73POL     A3  201   1.288  -0.020   0.219  0.4790 -0.1868  0.0793
   73POL     A4  202   1.400  -0.092   0.156  0.8113 -0.3632  0.3548
   73POL     A5  203   1.366  -0.222   0.207  0.0520 -0.4502 -0.0336
   73POL     A6  204   1.481  -0.243   0.290 -0.5884  0.1258 -0.4266
   73POL     A7  205   1.579  -0.343   0.239  1.0086 -0.0663  0.7716
   73POL     A8  206   1.631  -0.403   0.367 -0.2458  0.0159 -0.0983
   74POL     A1  207   0.102   0.506   2.040  0.0038  0.1204 -0.0061
   74POL     A2  208   0.085   0.417   1.925  0.1341  0.8501  0.5228
   74POL     A3  209   0.183   0.302   1.911  0.0449  0.8616  0.8856
   74POL     A4  210   0.311   0.320   1.981 -0.2778 -1.4938  0.5325
   74POL     A5  211   0.396   0.425   1.941 -0.5396 -0.2357  0.0109
   74POL     A6  212   0.541   0.384   1.975 -0.2316 -0.7797 -1.3928
   74POL     A7  213   0.594   0.344   2.096 -0.0800 -0.9711  0.7238
   74POL     A8  214   0.540   0.212   2.113 -0.3406  0.3265  0.2185
   75POL     A1  215   0.550   1.253   1.478  0.4707  0.8141 -1.0733
   75POL     A2  216   0.589   1.184   1.347 -0.4295  1.0046  0.1263
   75POL     A3  217   0.551   1.271   1.246 -0.3843  0.0276 -1.5183
   75POL     A4  218   0.444   1.207   1.154  0.3008 -0.5561  0.0577
   75POL     A5  219   0.523   1.195   1.023 -0.8226  0.4301  0.5448
   75POL     A6  220   0.501   1.337   0.974 -0.1897  0.0135 -0.2204
   75POL     A7  221   0.388   1.349   0.889 -0.0488 -1.3509 -1.0295
   75POL     A8  222   0.385   1.225   0.812 -0.0139  0.0123 -0.5556
   76POL     A1  223   1.856   2.021   0.260 -0.8213 -0.1975 -1.4952
   76POL     A2  224   1.998   2.002   0.239  0.6667  1.2709 -0.7931
   76POL     A3  225   2.082   2.037   0.354 -1.0904 -0.0216  1.5287
   76POL     A4  226   2.121   2.177   0.395 -1.1486 -0.7046  0.3226
   76POL     A5  227   2.021   2.271   0.446  0.6580 -0.1051 -0.9538
   76POL     A6  228   1.886   2.199   0.422 -0.5313  0.1682  0.1776
   76POL     A7  229   1.815   2.136   0.540  0.4020  0.0168 -0.4264
   76POL     A8  230   1.732   2.236   0.612  0.1733 -0.5964  0.8666
   77POL     A1  231   1.948   0.595   0.615 -0.5093  0.5873 -0.9662
   77POL     A2  232   2.054   0.489   0.580 -1.4253 -0.0463 -0.4882
   77POL     A3  233   2.185   0.540   0.595  0.0963 -0.3269 -0.3935
   77POL     A4  234   2.163   0.683   0.559  0.9056  0.1840  0.8748
   77POL     A5  235   2.198   0.726   0.421 -0.2130  1.1463 -0.2555
   77POL     A6  236   2.116   0.848   0.414  0.2090  0.1002 -0.0137
   77POL     A7  237   2.038   0.830   0.289 -0.0525  0.0239 -0.0509
   77POL     A8  238   2.093   0.915   0.184 -0.1256 -1.1353  0.1591
   78POL     A1  239   1.609   1.210   1.300  1.0815 -0.6043 -0.3572
   78POL     A2  240   1.521   1.232   1.193  0.4340 -1.8535 -0.1398
   78POL     A3  241   1.378   1.213   1.242 -0.6035 -0.2857 -0.3637
   78POL     A4  242   1.349   1.327   1.337 -0.9877  0.7105 -0.6012
   78POL     A5  243   1.305   1.470   1.290  0.0215  0.4430 -0.5144
   78POL     A6  244   1.196   1.512   1.194  0.1553 -0.1790 -0.6080
   78POL     A7  245   1.237   1.517   1.060  0.8601 -0.1842 -0.3105
   78POL     A8  246   1.381   1.481   1.044  0.5188  0.6706 -0.0795
   79POL     A1  247   0.634   0.800   1.916 -0.4460 -0.5961 -1.0824
   79POL     A2  248   0.767   0.777   1.959  0.1343  0.3863  0.7060
   79POL     A3  249   0.771   0.642   2.029  0.6291  0.4782  0.7846
   79POL     A4  250   0.813   0.529   1.943  0.1453  0.6558 -0.6638
   79POL     A5  251   0.821   0.552   1.789 -0.2688 -0.3100 -0.6486
   79POL     A6  252   0.748   0.462   1.722  0.8361  0.0119  0.5320
   79POL     A7  253   0.598   0.471   1.704  0.5154 -0.2667 -0.0913
   79POL     A8  254   0.549   0.596   1.764 -0.0833 -0.1873  0.0534
   80POL     A1  255   1.927   0.037   1.332  0.1165 -1.4399 -0.0338
   80POL     A2  256   2.052   0.083   1.390  0.3882 -0.7735  0.7879
   80POL     A3  257   2.141  -0.033   1.359  0.9931 -0.5521  0.6546
   80POL     A4  258   2.175  -0.090   1.497 -0.3708 -0.3229  0.0778
   80POL     A5  259   2.081  -0.194   1.529  0.4061  1.2916  0.9061
   80POL     A6  260   2.077  -0.342   1.487 -0.9102  0.1472  0.0998
   80POL     A7  261   2.215  -0.355   1.453 -0.9657 -0.2180  0.8245
   80POL     A8  262   2.288  -0.277   1.553  0.4748 -0.5878  1.7257
   81POL     A1  263   1.899   1.631   1.438 -0.3151  0.6050 -0.4289
   81POL     A2  264   1.921   1.513   1.528 -0.2028 -1.0532 -0.2968
   81POL     A3  265   1.914   1.381   1.476 -0.5272 -1.0896 -1.3930
   81POL     A4  266   1.901   1.372   1.323 -0.1504 -0.1688 -0.2621
   81POL     A5  267   2.020   1.381   1.239  0.4706 -0.9256  0.8569
   81POL     A6  268   2.077   1.264   1.167  0.6302  0.4271  0.4563
   81POL     A7  269   2.179   1.286   1.064 -0.6885 -0.5047 -0.1768
   81POL     A8  270   2.245   1.415   1.089  1.0521 -0.3091  0.3181
   2.20000   2.20000   2.20000
