[ defaults ]
; nbfunc comb-rule gen-pairs fudgeLJ fudgeQQ rep-pow
1 4 yes 1.0 1.0 9.0

[ atomtypes ]
; name mass charge ptype sigma epsilon
T1       12.011 0.0 A 0.35000000 0.20920000

[ moleculetype ]
; Name nrexcl
TOY1 3

[ atoms ]
; nr type resnr residue atom cgnr charge mass
  1 T1         1 TOY1   A1       1  0.00000000  12.011000
  2 T1         1 TOY1   A2       2  0.00000000  12.011000
  3 T1         1 TOY1   A3       3  0.00000000  12.011000
  4 T1         1 TOY1   A4       4  0.00000000  12.011000

[ bonds ]
; ai aj funct c0 c1 c2 c3
  1   2 11 0.15000000 0.00000000 0.00000000 0.00000000
  2   3 11 0.15000000 0.00000000 0.00000000 0.00000000
  3   4 11 0.15000000 0.00000000 0.00000000 0.00000000

[ pairs ]
; ai aj funct
  1   4 1

[ angles ]
; ai aj ak funct c0..c10
  1   2   3 11 180.00000000 0.00000000 0.00000000 0.00000000 0.00000000 0.15000000 0.15000000 0.00000000 0.00000000 0.15000000 0.15000000
  2   3   4 11 180.00000000 0.00000000 0.00000000 0.00000000 0.00000000 0.15000000 0.15000000 0.00000000 0.00000000 0.15000000 0.15000000

[ dihedrals ]
; ai aj ak al funct c0..c31
  1   2   3   4 13 0.00000000 0.00000000 0.00000000 0.00000000 0.00000000 0.00000000 0.00000000 0.00000000 0.00000000 0.15000000 0.00000000 0.00000000 0.00000000 0.00000000 0.00000000 0.00000000 0.15000000 0.15000000 0.00000000 0.00000000 0.00000000 0.00000000 0.00000000 0.00000000 180.00000000 180.00000000 0.00000000 180.00000000 180.00000000 0.00000000 0.15000000 0.15000000

[ system ]
exclusion_toy

[ molecules ]
; Name number
TOY1 1
