integrator = md
dt = 0.001
nsteps = 500000
cutoff-scheme = Verlet
nstlist = 10
pbc = xyz
nstlog = 1000
nstcalcenergy = 100
nstenergy = 1000
nstxout = 0
nstvout = 0
nstfout = 0
nstxout-compressed = 0
coulombtype = PME
coulomb-modifier = Potential-shift-Verlet
rcoulomb = 0.9
vdw-type = Cut-off
vdw-modifier = Potential-shift-Verlet
rvdw = 0.9
DispCorr = no
pme-order = 4
fourierspacing = 0.12
ewald-rtol = 1e-5
tcoupl = no
pcoupl = no
constraints = none
gen_vel = yes
gen_temp = 300
gen_seed = -1989880213
rlist = 0.909
verlet-buffer-tolerance = -1
