dense_salt_polymer
  270
    1POL     A1    1   0.599   1.246   1.051 -0.2831  0.7990  0.3049
    1POL     A2    2   0.582   1.215   0.914 -0.0613 -0.9364  0.4290
    1POL     A3    3   0.684   1.239   0.800  0.7826 -0.8086  0.5991
    1POL     A4    4   0.816   1.251   0.874 -0.1998  1.0454 -0.1998
    1POL     A5    5   0.892   1.371   0.911 -0.0789 -1.0159  1.5258
    1POL     A6    6   1.040   1.349   0.864  0.3124  1.0297 -0.1540
    1POL     A7    7   1.081   1.213   0.868  0.7802 -0.8342  0.3053
    1POL     A8    8   1.147   1.140   0.972  0.9809  1.0341  0.6380
    2POL     A1    9   0.406   1.673   1.764 -0.2771 -0.0379 -0.1636
    2POL     A2   10   0.543   1.628   1.720  0.3483 -0.3137  0.9283
    2POL     A3   11   0.582   1.549   1.597 -0.0683  0.3251 -0.0179
    2POL     A4   12   0.479   1.585   1.509 -0.1784 -0.3109  0.4342
    2POL     A5   13   0.537   1.640   1.380  0.4938 -0.2952  0.1290
    2POL     A6   14   0.477   1.557   1.276 -0.1892  0.0960  1.1232
    2POL     A7   15   0.392   1.616   1.178 -1.7825 -0.1487 -0.9576
    2POL     A8   16   0.453   1.690   1.065  0.2555  0.1598 -0.6915
    3POL     A1   17   1.767   2.123   2.073  1.3431  0.9847 -1.0053
    3POL     A2   18   1.731   2.206   1.962 -1.1100 -0.3317  0.3328
    3POL     A3   19   1.831   2.141   1.847 -1.5508 -0.5718 -0.9950
    3POL     A4   20   1.932   2.068   1.896 -1.1613  0.3603 -0.6130
    3POL     A5   21   2.075   2.073   1.861 -1.2876  0.9383 -0.6454
    3POL     A6   22   2.139   2.170   1.942  0.5001  0.4687  1.4110
    3POL     A7   23   2.074   2.160   2.077  0.4079 -0.0463 -0.5969
    3POL     A8   24   2.182   2.069   2.161 -1.5056  0.2623  0.4961
    4POL     A1   25   0.195   1.518   1.448  0.3225  0.3110  1.0083
    4POL     A2   26   0.151   1.636   1.378 -1.3920 -0.2942 -0.4791
    4POL     A3   27   0.014   1.594   1.339 -0.2950 -0.4792 -0.6164
    4POL     A4   28  -0.008   1.477   1.244 -0.6826 -0.7348  1.3477
    4POL     A5   29  -0.072   1.362   1.325  0.7855 -0.3173  0.1252
    4POL     A6   30  -0.032   1.382   1.469  0.8023  0.2058 -0.1549
    4POL     A7   31  -0.124   1.407   1.576  0.1800 -0.6300  1.0422
    4POL     A8   32  -0.165   1.561   1.567  0.4101 -0.1422  0.1181
    5POL     A1   33   0.485   1.488   0.073  0.0103  0.3199 -0.9380
    5POL     A2   34   0.586   1.542  -0.029  0.1432 -0.8781  0.1148
    5POL     A3   35   0.641   1.661   0.043  0.1750  0.1634 -0.2251
    5POL     A4   36   0.635   1.784  -0.042 -0.5887  0.7326  0.2305
    5POL     A5   37   0.694   1.753  -0.175 -0.0099 -0.1356  0.0192
    5POL     A6   38   0.838   1.767  -0.192  0.4648 -1.0822 -0.3791
    5POL     A7   39   0.854   1.643  -0.276  0.5741 -0.4142 -1.0250
    5POL     A8   40   0.996   1.614  -0.247  1.0827  0.3648  0.3196
    6POL     A1   41   0.064   1.018   1.183  1.0216  0.1192 -0.2278
    6POL     A2   42   0.118   1.155   1.142 -0.2765  0.5690  0.8595
    6POL     A3   43   0.070   1.164   0.996  0.5583 -0.7526 -0.5379
    6POL     A4   44  -0.075   1.206   1.032 -0.3916  0.0055 -0.5809
    6POL     A5   45  -0.089   1.335   0.957  1.1140  0.7873 -0.7576
    6POL     A6   46   0.007   1.374   0.861  1.6877  0.2794 -0.0922
    6POL     A7   47  -0.018   1.280   0.754  1.6571 -0.4276  0.1715
    6POL     A8   48  -0.143   1.331   0.682  0.1654 -0.2794  0.9803
    7POL     A1   49   1.557   0.639   0.278 -0.9096 -0.2555  0.0789
    7POL     A2   50   1.564   0.783   0.283 -0.3992  0.1551 -0.0924
    7POL     A3   51   1.532   0.861   0.173  0.6019  0.4965  1.0700
    7POL     A4   52   1.381   0.899   0.216  0.3123 -0.0840  0.3207
    7POL     A5   53   1.366   1.000   0.328  0.1089  0.4861  0.3587
    7POL     A6   54   1.420   0.957   0.468 -0.4264 -0.1197  0.0740
    7POL     A7   55   1.316   0.913   0.558 -0.4745 -0.1840 -0.1370
    7POL     A8   56   1.366   0.771   0.590 -0.0586 -0.2659  0.2703
    8POL     A1   57   0.025   0.957   0.420 -0.3861  0.6817  0.1521
    8POL     A2   58   0.044   0.867   0.312  1.0817  0.0893 -0.8301
    8POL     A3   59   0.090   0.938   0.179  0.0304  0.5218  0.3029
    8POL     A4   60   0.235   0.962   0.207 -0.3922  0.8737 -0.0466
    8POL     A5   61   0.274   0.833   0.268 -1.0974 -0.1498  0.7758
    8POL     A6   62   0.380   0.762   0.184 -0.1133  0.4651  0.1487
    8POL     A7   63   0.471   0.837   0.094 -0.1659 -0.2075  1.0826
    8POL     A8   64   0.546   0.916   0.198  0.9431  0.0556 -0.9212
    9POL     A1   65   0.860   0.669   0.598  0.5239  0.1271 -0.5316
    9POL     A2   66   0.783   0.780   0.657  0.5282 -0.3368  0.3995
    9POL     A3   67   0.815   0.839   0.795  0.6121  0.4559 -0.8852
    9POL     A4   68   0.850   0.710   0.866  0.8028  0.5338 -0.0677
    9POL     A5   69   0.770   0.677   0.983 -0.6792 -1.7301 -0.8945
    9POL     A6   70   0.649   0.593   0.955  1.0653  0.7372  0.5613
    9POL     A7   71   0.633   0.468   0.994 -0.5501 -0.0902  1.1488
    9POL     A8   72   0.726   0.369   0.907  0.8119  0.4749 -0.9838
   10POL     A1   73   2.135   0.560   0.935  0.3953 -0.1060  0.5331
   10POL     A2   74   2.073   0.547   1.077  0.6124  1.0040  0.0594
   10POL     A3   75   1.992   0.426   1.125 -0.1945 -0.3236  0.6079
   10POL     A4   76   1.850   0.417   1.080 -0.3378  0.6253  0.2842
   10POL     A5   77   1.796   0.535   1.123 -1.0423  0.8411  1.1965
   10POL     A6   78   1.702   0.573   1.015  0.7992  0.4106  0.3147
   10POL     A7   79   1.557   0.546   1.040 -0.1080 -1.2554  0.2656
   10POL     A8   80   1.531   0.570   1.182  0.3868 -0.9550  0.2579
   11POL     A1   81   0.932   1.445   0.145 -0.1997  0.8832 -0.3596
   11POL     A2   82   0.900   1.432   0.002 -0.2305 -1.2256  0.3840
   11POL     A3   83   0.914   1.316  -0.095 -0.1074 -0.1619 -0.7543
   11POL     A4   84   0.786   1.247  -0.119 -0.2167  0.4753 -0.8675
   11POL     A5   85   0.693   1.336  -0.184 -0.4642  0.0515 -0.0989
   11POL     A6   86   0.640   1.275  -0.310  0.3986  0.1263 -1.2289
   11POL     A7   87   0.489   1.244  -0.319 -1.0805 -0.1574  0.8896
   11POL     A8   88   0.388   1.336  -0.290 -1.0890 -1.3053 -0.3532
   12POL     A1   89   0.605   0.265   0.162  0.1467 -1.0928 -0.9981
   12POL     A2   90   0.546   0.365   0.078  0.1043  0.4439  1.1267
   12POL     A3   91   0.614   0.493   0.084 -0.6651  0.3577 -1.0008
   12POL     A4   92   0.661   0.538   0.217 -0.1747 -0.0948 -0.6913
   12POL     A5   93   0.810   0.538   0.241  0.1019  0.1157  0.3825
   12POL     A6   94   0.885   0.657   0.195 -0.0120  0.1349  0.2583
   12POL     A7   95   1.033   0.628   0.209  0.1994 -0.1398  0.9205
   12POL     A8   96   1.096   0.640   0.349 -1.0370  0.2069  0.7490
   13CAT     A1   97   0.181   0.718   1.879 -0.2246 -0.7273  0.1367
   14CAT     A1   98   1.193   0.653   1.766  0.1696  0.7140  0.0998
   15CAT     A1   99   0.805   0.669   1.681  0.3913 -0.4583  0.6907
   16CAT     A1  100   0.453   0.946   1.394 -0.1366  0.0814  0.4537
   17CAT     A1  101   1.254   0.927   1.631  0.0111 -0.3510  0.0493
   18CAT     A1  102   0.769   0.972   1.906  0.6957 -0.8570 -0.1145
   19CAT     A1  103   1.663   0.907   1.582 -0.3076  0.0266  0.8737
   20CAT     A1  104   1.312   0.660   2.029 -0.2738 -0.0778  0.9384
   21CAT     A1  105   1.063   0.734   1.517 -0.6020 -0.0714 -0.4541
   22CAT     A1  106   1.404   0.861   1.867 -0.0214 -0.3052 -0.4534
   23CAT     A1  107   0.041   0.664   1.588  0.6888 -0.3217  0.5073
   24CAT     A1  108   2.029   0.918   1.567  0.0407 -0.7840  0.0701
   25CAT     A1  109   1.159   0.917   1.985 -0.2660  0.6442  0.6576
   26CAT     A1  110   0.932   0.719   1.952 -0.5450 -0.0929  1.1933
   27CAT     A1  111   1.008   0.905   1.737 -0.5005 -0.6986  0.4015
   28CAT     A1  112   2.009   0.716   1.771  0.3033 -1.0368 -0.1610
   29CAT     A1  113   1.814   0.708   1.471 -0.2699  0.5792 -0.2608
   30CAT     A1  114   0.294   0.673   1.296 -0.0051 -0.0425 -0.5360
   31CAT     A1  115   0.392   0.698   1.598 -0.5652 -0.5051  0.1029
   32CAT     A1  116   0.348   0.944   1.782 -0.0740 -0.0966  0.5802
   33CAT     A1  117   0.212   0.873   1.489  0.3142  0.9208  0.5985
   34CAT     A1  118   0.568   0.747   1.829  0.2522  0.2823 -0.7515
   35CAT     A1  119   0.001   0.947   1.765  0.3633 -0.1252 -0.4326
   36CAT     A1  120   0.684   0.743   1.411  0.4011  0.2365 -0.4117
   37CAT     A1  121   0.622   0.903   1.625 -0.2601 -0.1442 -0.4241
   38CAT     A1  122   0.860   0.952   1.475 -0.3792  0.6247  0.4032
   39CAT     A1  123   1.448   0.725   1.592  0.1501  0.3983 -0.5626
   40ANI     A1  124   0.580   0.952   1.837 -0.3421  0.3685 -0.5039
   41ANI     A1  125   1.121   0.683   1.987  0.3147 -0.0750 -0.2296
   42ANI     A1  126   0.805   0.900   1.687  0.3072 -0.6273  0.2965
   43ANI     A1  127   1.026   0.709   1.715  0.4959  0.0697  0.1356
   44ANI     A1  128   0.751   0.700   1.887  1.0753  0.1581  0.2577
   45ANI     A1  129   1.051   0.936   1.536  0.5028 -0.4411 -0.2662
   46ANI     A1  130   0.609   0.709   1.608  0.4014  0.6293 -0.6383
   47ANI     A1  131   1.252   0.743   1.557 -0.2118  0.0171  0.2329
   48ANI     A1  132   1.231   0.936   1.804  0.2379  0.5151  0.4943
   49ANI     A1  133   1.844   0.938   1.466 -0.5446 -0.0624  0.4003
   50ANI     A1  134   1.496   0.896   1.708 -0.2281 -0.6336 -0.4564
   51ANI     A1  135   1.629   0.712   1.518  0.3114  0.3742  0.0535
   52ANI     A1  136   1.391   0.657   1.848  0.9075  0.2839  0.0230
   53ANI     A1  137   1.333   0.867   2.062 -0.3775  0.0245  0.4750
   54ANI     A1  138   0.366   0.696   1.809 -0.0738 -0.1622 -0.3766
   55ANI     A1  139   0.890   0.730   1.438 -0.3151 -0.1009 -0.3063
   56ANI     A1  140   0.958   0.919   1.967  0.2427 -0.4688  0.0669
   57ANI     A1  141   2.004   0.917   1.775 -0.5904  0.2656  0.2497
   58ANI     A1  142   0.282   0.874   1.309  0.2449 -0.0100  0.6578
   59ANI     A1  143   0.228   0.644   1.496  0.0075  0.3852 -1.1174
   60ANI     A1  144   0.488   0.710   1.358 -0.2279 -0.0438 -0.1771
   61ANI     A1  145   0.025   0.876   1.567  0.7790  0.3729 -0.3804
   62ANI     A1  146   0.015   0.683   1.800  0.2707  0.0559 -0.4507
   63ANI     A1  147   0.368   0.922   1.583 -0.1032  0.0850 -0.1185
   64ANI     A1  148   0.667   0.946   1.426  0.3495  0.1262 -0.3114
   65ANI     A1  149   0.162   0.922   1.867 -0.2088 -0.3451  0.1161
   66ANI     A1  150   1.986   0.711   1.577 -0.2519  0.0726 -0.3942
   67POL     A1  151   1.454   1.743   2.195 -0.7763  0.6577  0.6954
   67POL     A2  152   1.606   1.775   2.186  0.1624  0.3647  0.5660
   67POL     A3  153   1.667   1.664   2.253 -0.0786  0.4943 -0.4183
   67POL     A4  154   1.725   1.543   2.173  0.4257 -1.6220  0.6212
   67POL     A5  155   1.733   1.527   2.019 -0.9967  0.1285 -1.0646
   67POL     A6  156   1.663   1.628   1.936  0.1672  0.5744  1.0251
   67POL     A7  157   1.769   1.736   1.929  0.3379 -1.2357 -0.5423
   67POL     A8  158   1.877   1.762   2.041 -0.6497 -0.0503  0.5225
   68POL     A1  159   0.323   1.393   0.508 -1.2370  0.6306  0.5154
   68POL     A2  160   0.467   1.407   0.472 -0.4908 -1.5440 -0.8885
   68POL     A3  161   0.583   1.443   0.548 -1.4385  0.0149  1.3366
   68POL     A4  162   0.542   1.531   0.660  0.3050 -0.6212  0.5728
   68POL     A5  163   0.640   1.634   0.707  0.1415  1.6420  0.0628
   68POL     A6  164   0.558   1.744   0.778  0.4429  0.1859 -0.1892
   68POL     A7  165   0.422   1.781   0.751 -0.5147  0.2575 -0.5767
   68POL     A8  166   0.403   1.813   0.606 -0.6055  0.5840 -0.6398
   69POL     A1  167   0.192   0.884   0.939 -1.0253 -0.5898  0.8012
   69POL     A2  168   0.335   0.895   0.969  0.3296 -1.3395 -0.5601
   69POL     A3  169   0.404   0.752   0.972 -0.6612  0.1353 -0.9981
   69POL     A4  170   0.328   0.654   1.053  0.0021  0.5940 -0.0528
   69POL     A5  171   0.224   0.592   0.963 -0.1103  0.1224  1.3275
   69POL     A6  172   0.197   0.449   0.978 -0.2418 -0.5397 -0.7516
   69POL     A7  173   0.254   0.411   1.111 -0.2879  0.2875  0.9245
   69POL     A8  174   0.222   0.517   1.217  0.3635  1.3517  0.2063
   70POL     A1  175   1.790   0.053   1.184 -0.1454  1.0480 -0.7830
   70POL     A2  176   1.859  -0.016   1.055 -0.6121 -0.5492  0.4386
   70POL     A3  177   2.000   0.011   1.027 -0.7418 -0.9506  0.2481
   70POL     A4  178   2.021   0.138   0.954  0.4450  0.2976  0.2139
   70POL     A5  179   2.171   0.152   0.965 -0.9865 -0.5466  1.0847
   70POL     A6  180   2.237   0.140   0.841  0.5530  0.9183  0.2710
   70POL     A7  181   2.289   0.265   0.781 -0.0092 -0.7127 -0.9587
   70POL     A8  182   2.186   0.364   0.744  0.2622 -0.1724  0.6743
   71POL     A1  183   1.888   0.467   2.126  1.2104  0.1275  0.3712
   71POL     A2  184   1.823   0.419   1.991 -1.0490  0.4271  0.0646
   71POL     A3  185   1.686   0.407   2.021  0.3395 -0.5315 -0.0044
   71POL     A4  186   1.673   0.339   2.151  0.8993 -0.1756 -0.3616
   71POL     A5  187   1.606   0.220   2.121 -0.9045 -0.6850 -0.5917
   71POL     A6  188   1.495   0.189   2.223 -0.3921  0.4020  0.6636
   71POL     A7  189   1.510   0.214   2.365  0.3693 -0.4988 -0.5286
   71POL     A8  190   1.391   0.151   2.437 -0.3671 -0.2995  0.4278
   72POL     A1  191   0.484   2.180   0.272  0.6258 -1.3772 -0.8023
   72POL     A2  192   0.541   2.074   0.347 -0.6769 -1.1874 -0.5328
   72POL     A3  193   0.559   2.156   0.482 -0.4144  0.2843  0.4063
   72POL     A4  194   0.680   2.231   0.503 -0.9447 -0.2757 -0.2006
   72POL     A5  195   0.781   2.236   0.392  0.6186  0.2425 -1.0000
   72POL     A6  196   0.914   2.177   0.417 -0.6510  0.1358 -0.4224
   72POL     A7  197   0.897   2.024   0.375 -1.2589 -1.5559  0.2580
   72POL     A8  198   0.899   1.991   0.223 -0.1846 -0.8903  0.3123
   73POL     A1  199   1.487   1.335   0.250  1.2867 -1.2365 -0.4873
   73POL     A2  200   1.448   1.349   0.112 -0.7742  0.2127  0.4899
   73POL     A3  201   1.325   1.271   0.074 -0.4641  0.5604 -0.5209
   73POL     A4  202   1.228   1.195   0.160 -0.6279  1.0377  0.8975
   73POL     A5  203   1.160   1.061   0.126  0.0370 -0.4267 -0.2529
   73POL     A6  204   1.087   1.018   0.245 -0.8870 -0.6054 -0.5122
   73POL     A7  205   1.090   1.100   0.385  0.8300 -0.3371  0.8147
   73POL     A8  206   1.110   1.231   0.383 -0.1901 -0.1054 -0.2548
   74POL     A1  207   0.777   1.843   0.833 -0.4144  0.8217  0.1533
   74POL     A2  208   0.672   1.826   0.942  0.9990 -0.2101  0.4850
   74POL     A3  209   0.615   1.959   0.977 -0.2710 -0.7735  0.2296
   74POL     A4  210   0.733   2.047   0.989 -1.5452  0.2862 -0.3319
   74POL     A5  211   0.795   2.042   1.113 -0.1961 -0.1561 -0.2835
   74POL     A6  212   0.736   1.945   1.214  0.1401  0.4014 -0.0199
   74POL     A7  213   0.839   1.919   1.318 -0.0979  0.1907  0.2854
   74POL     A8  214   0.927   1.801   1.318  0.0894 -0.0095  0.2481
   75POL     A1  215   0.665   1.197   0.372 -0.0011  0.5783 -0.2755
   75POL     A2  216   0.612   1.258   0.249 -0.5663  0.5740  0.4803
   75POL     A3  217   0.509   1.181   0.164 -0.0476  0.8013  0.6947
   75POL     A4  218   0.535   1.166   0.009 -0.4152  0.1552 -0.2799
   75POL     A5  219   0.592   1.044  -0.045  0.4578  0.6024 -0.8466
   75POL     A6  220   0.735   1.026  -0.064 -0.2632  0.2951 -0.6233
   75POL     A7  221   0.827   1.025   0.062 -0.4249 -0.0728  0.3100
   75POL     A8  222   0.904   0.906   0.050  0.6984 -0.7283 -0.5844
   76POL     A1  223   1.907   2.102   0.582 -0.2382 -0.0361 -0.0994
   76POL     A2  224   1.909   1.947   0.615  0.9591 -0.3025 -0.0277
   76POL     A3  225   2.052   1.925   0.576  0.4925  0.6792 -1.1763
   76POL     A4  226   2.119   2.049   0.522  0.3480  0.0897 -0.3439
   76POL     A5  227   2.250   2.060   0.611 -0.1510  0.1099  0.9665
   76POL     A6  228   2.375   2.080   0.517 -0.6432  0.0572 -0.7288
   76POL     A7  229   2.404   1.947   0.440  0.8484  0.9842  0.6847
   76POL     A8  230   2.424   1.949   0.290  0.7477 -0.4739 -0.2685
   77POL     A1  231   0.290   0.339   1.882  0.6393  0.1641 -0.8027
   77POL     A2  232   0.183   0.250   1.850  0.1383  0.1136  0.3556
   77POL     A3  233   0.115   0.280   1.726  0.8443 -0.2440  0.1365
   77POL     A4  234   0.211   0.289   1.618 -0.0540  0.1683  0.0794
   77POL     A5  235   0.225   0.182   1.514  0.2008  0.4966 -0.5344
   77POL     A6  236   0.097   0.163   1.455 -0.3913  0.9374 -0.3178
   77POL     A7  237   0.092   0.304   1.383  0.1790 -0.0879  0.2032
   77POL     A8  238  -0.044   0.293   1.302 -1.2458 -0.8958  0.3615
   78POL     A1  239   0.409   2.171   0.934  0.1501  0.5495 -0.2167
   78POL     A2  240   0.390   2.304   1.008  0.5451 -0.3284  0.4923
   78POL     A3  241   0.378   2.285   1.154  1.6565 -0.8261 -0.0745
   78POL     A4  242   0.449   2.154   1.189 -0.4305 -0.8312  0.1304
   78POL     A5  243   0.577   2.206   1.249 -0.7382 -0.1230  0.0295
   78POL     A6  244   0.555   2.331   1.314 -0.2200 -0.4453 -0.1882
   78POL     A7  245   0.500   2.328   1.446 -1.2086 -0.7988 -0.0555
   78POL     A8  246   0.579   2.213   1.511  1.1416 -0.5209 -1.4893
   79POL     A1  247   2.146   1.760   2.072  0.4548 -0.2821 -0.3185
   79POL     A2  248   2.256   1.676   2.048  0.1537 -0.6788 -0.3979
   79POL     A3  249   2.212   1.526   2.050  0.2757 -0.5604 -0.4252
   79POL     A4  250   2.113   1.482   2.151  1.1263 -0.6043 -0.3284
   79POL     A5  251   2.189   1.356   2.195 -1.1488  0.0261 -0.4086
   79POL     A6  252   2.304   1.378   2.302  0.5510  0.7158 -0.4221
   79POL     A7  253   2.288   1.280   2.415  0.7500  0.5297 -0.3079
   79POL     A8  254   2.272   1.348   2.556  0.1661  0.3261  0.7671
   80POL     A1  255   1.535   0.485   0.692 -0.6492 -0.0763 -0.3746
   80POL     A2  256   1.448   0.542   0.584 -0.4442 -0.7616 -0.1856
   80POL     A3  257   1.332   0.471   0.537  1.0305  2.1714 -0.6455
   80POL     A4  258   1.258   0.404   0.662  0.3849 -1.0387  0.0658
   80POL     A5  259   1.210   0.265   0.645 -0.6560 -0.2812 -1.3421
   80POL     A6  260   1.351   0.223   0.666 -1.0597  0.5890  0.1425
   80POL     A7  261   1.351   0.070   0.719 -0.0114  0.5551 -0.0199
   80POL     A8  262   1.395   0.078   0.864  0.3411  1.2702  0.4618
   81POL     A1  263   1.078   0.546   1.311 -0.9321  1.3473  0.3955
   81POL     A2  264   0.940   0.534   1.272 -0.2222  0.1211 -0.7352
   81POL     A3  265   0.906   0.499   1.126 -0.4420 -0.8778 -0.0293
   81POL     A4  266   1.010   0.424   1.051  2.4815  0.3870 -0.8784
   81POL     A5  267   1.070   0.313   1.134 -0.4888  1.7812  0.3616
   81POL     A6  268   0.981   0.235   1.208 -0.6256  0.5470  0.5819
   81POL     A7  269   0.929   0.247   1.348 -0.5745  1.2559 -0.4644
   81POL     A8  270   1.031   0.317   1.420 -0.4766  0.2117 -0.4125
   2.20000   2.20000   2.20000
